 Entering Gaussian System, Link 0=g16
 Initial command:
 /gpfs/loomis/apps/avx/software/Gaussian/16-C.01_AVX/g16/l1.exe "/home/fas/batista/pev4/scratch60/gauss-scratch/Gau-81408.inp" -scrdir="/home/fas/batista/pev4/scratch60/gauss-scratch/"
 Entering Link 1 = /gpfs/loomis/apps/avx/software/Gaussian/16-C.01_AVX/g16/l1.exe PID=     81409.
  
 Copyright (c) 1988-2019, Gaussian, Inc.  All Rights Reserved.
  
 This is part of the Gaussian(R) 16 program.  It is based on
 the Gaussian(R) 09 system (copyright 2009, Gaussian, Inc.),
 the Gaussian(R) 03 system (copyright 2003, Gaussian, Inc.),
 the Gaussian(R) 98 system (copyright 1998, Gaussian, Inc.),
 the Gaussian(R) 94 system (copyright 1995, Gaussian, Inc.),
 the Gaussian 92(TM) system (copyright 1992, Gaussian, Inc.),
 the Gaussian 90(TM) system (copyright 1990, Gaussian, Inc.),
 the Gaussian 88(TM) system (copyright 1988, Gaussian, Inc.),
 the Gaussian 86(TM) system (copyright 1986, Carnegie Mellon
 University), and the Gaussian 82(TM) system (copyright 1983,
 Carnegie Mellon University). Gaussian is a federally registered
 trademark of Gaussian, Inc.
  
 This software contains proprietary and confidential information,
 including trade secrets, belonging to Gaussian, Inc.
  
 This software is provided under written license and may be
 used, copied, transmitted, or stored only in accord with that
 written license.
  
 The following legend is applicable only to US Government
 contracts under FAR:
  
                    RESTRICTED RIGHTS LEGEND
  
 Use, reproduction and disclosure by the US Government is
 subject to restrictions as set forth in subparagraphs (a)
 and (c) of the Commercial Computer Software - Restricted
 Rights clause in FAR 52.227-19.
  
 Gaussian, Inc.
 340 Quinnipiac St., Bldg. 40, Wallingford CT 06492
  
  
 ---------------------------------------------------------------
 Warning -- This program may not be used in any manner that
 competes with the business of Gaussian, Inc. or will provide
 assistance to any competitor of Gaussian, Inc.  The licensee
 of this program is prohibited from giving any competitor of
 Gaussian, Inc. access to this program.  By using this program,
 the user acknowledges that Gaussian, Inc. is engaged in the
 business of creating and licensing software in the field of
 computational chemistry and represents and warrants to the
 licensee that it is not a competitor of Gaussian, Inc. and that
 it will not use this program in any manner prohibited above.
 ---------------------------------------------------------------
  

 Cite this work as:
 Gaussian 16, Revision C.01,
 M. J. Frisch, G. W. Trucks, H. B. Schlegel, G. E. Scuseria, 
 M. A. Robb, J. R. Cheeseman, G. Scalmani, V. Barone, 
 G. A. Petersson, H. Nakatsuji, X. Li, M. Caricato, A. V. Marenich, 
 J. Bloino, B. G. Janesko, R. Gomperts, B. Mennucci, H. P. Hratchian, 
 J. V. Ortiz, A. F. Izmaylov, J. L. Sonnenberg, D. Williams-Young, 
 F. Ding, F. Lipparini, F. Egidi, J. Goings, B. Peng, A. Petrone, 
 T. Henderson, D. Ranasinghe, V. G. Zakrzewski, J. Gao, N. Rega, 
 G. Zheng, W. Liang, M. Hada, M. Ehara, K. Toyota, R. Fukuda, 
 J. Hasegawa, M. Ishida, T. Nakajima, Y. Honda, O. Kitao, H. Nakai, 
 T. Vreven, K. Throssell, J. A. Montgomery, Jr., J. E. Peralta, 
 F. Ogliaro, M. J. Bearpark, J. J. Heyd, E. N. Brothers, K. N. Kudin, 
 V. N. Staroverov, T. A. Keith, R. Kobayashi, J. Normand, 
 K. Raghavachari, A. P. Rendell, J. C. Burant, S. S. Iyengar, 
 J. Tomasi, M. Cossi, J. M. Millam, M. Klene, C. Adamo, R. Cammi, 
 J. W. Ochterski, R. L. Martin, K. Morokuma, O. Farkas, 
 J. B. Foresman, and D. J. Fox, Gaussian, Inc., Wallingford CT, 2019.
 
 ******************************************
 Gaussian 16:  ES64L-G16RevC.01  3-Jul-2019
                13-Oct-2021 
 ******************************************
 %chk=Rebpy_S0_opt.chk
 %mem=59GB
 %nprocshared=12
 Will use up to   12 processors via shared memory.
 ---------------------------------------------
 #p opt wb97xd/genecp nosymm geom=connectivity
 ---------------------------------------------
 1/18=20,19=15,26=3,38=1,57=2/1,3;
 2/9=110,12=2,15=1,17=6,18=5,40=1/2;
 3/5=7,11=2,16=1,17=8,25=1,30=1,71=1,74=-58/1,2,3;
 4//1;
 5/5=2,38=5/2;
 6/7=2,8=2,9=2,10=2,28=1/1;
 7/30=1/1,2,3,16;
 1/18=20,19=15,26=3/3(2);
 2/9=110,15=1/2;
 99//99;
 2/9=110,15=1/2;
 3/5=7,6=1,11=2,16=1,17=8,25=1,30=1,71=1,74=-58,82=7/1,2,3;
 4/5=5,16=3,69=1/1;
 5/5=2,38=5/2;
 7/30=1/1,2,3,16;
 1/18=20,19=15,26=3/3(-5);
 2/9=110,15=1/2;
 6/7=2,8=2,9=2,10=2,19=2,28=1/1;
 99/9=1/99;
 Leave Link    1 at Wed Oct 13 11:25:48 2021, MaxMem=  7918845952 cpu:               6.4 elap:               0.6
 (Enter /gpfs/loomis/apps/avx/software/Gaussian/16-C.01_AVX/g16/l101.exe)
 ---------------------------------
 Optimization of Rebpy on S0 state
 ---------------------------------
 Symbolic Z-matrix:
 Charge =  0 Multiplicity = 1
 H                     0.        0.        0. 
 H                     0.        0.        2.21328 
 C                     0.97148   0.       -0.44834 
 C                     0.97181  -0.00049   2.66104 
 C                     1.12113   0.06021  -1.8382 
 C                     1.12255   0.05864   4.05099 
 C                     2.1238   -0.05501   0.33834 
 C                     2.12383  -0.05528   1.87352 
 C                     2.41544   0.06603  -2.38296 
 C                     2.41739   0.06357   4.59452 
 H                     2.55364   0.12876  -3.44214 
 H                     2.55618   0.12581   5.65354 
 N                     3.34088  -0.09553  -0.20437 
 N                     3.34101  -0.09647   2.41503 
 C                     3.52936  -0.01341  -1.52818 
 C                     3.53063  -0.01589   3.7388 
 H                     4.51997  -0.01211  -1.93208 
 H                     4.52143  -0.01565   4.14242 
 Re                    4.81623  -0.28676   1.10346 
 C                     5.24678   1.71646   1.04837 
 Cl                    4.61616  -2.54626   1.18468 
 O                     5.514     2.94637   1.01651 
 C                     6.34355  -0.48466   2.45987 
 C                     6.08364  -0.59486  -0.47833 
 O                     7.28148  -0.60947   3.28991 
 H                     0.26507   0.10131   4.68949 
 O                     6.85966  -0.78667  -1.4498 
 H                     0.26284   0.10317  -2.47588 
 
 ITRead=  0  0  0  0  0  0  0  0  0  0  0  0  0  0  0  0  0  0  0  0
 ITRead=  0  0  0  0  0  0  0  0
 MicOpt= -1 -1 -1 -1 -1 -1 -1 -1 -1 -1 -1 -1 -1 -1 -1 -1 -1 -1 -1 -1
 MicOpt= -1 -1 -1 -1 -1 -1 -1 -1
 NAtoms=     28 NQM=       28 NQMF=       0 NMMI=      0 NMMIF=      0
                NMic=       0 NMicF=      0.
                    Isotopes and Nuclear Properties:
 (Nuclear quadrupole moments (NQMom) in fm**2, nuclear magnetic moments (NMagM)
  in nuclear magnetons)

  Atom         1           2           3           4           5           6           7           8           9          10
 IAtWgt=           1           1          12          12          12          12          12          12          12          12
 AtmWgt=   1.0078250   1.0078250  12.0000000  12.0000000  12.0000000  12.0000000  12.0000000  12.0000000  12.0000000  12.0000000
 NucSpn=           1           1           0           0           0           0           0           0           0           0
 AtZEff=  -0.0000000  -0.0000000  -0.0000000  -0.0000000  -0.0000000  -0.0000000  -0.0000000  -0.0000000  -0.0000000  -0.0000000
 NQMom=    0.0000000   0.0000000   0.0000000   0.0000000   0.0000000   0.0000000   0.0000000   0.0000000   0.0000000   0.0000000
 NMagM=    2.7928460   2.7928460   0.0000000   0.0000000   0.0000000   0.0000000   0.0000000   0.0000000   0.0000000   0.0000000
 AtZNuc=   1.0000000   1.0000000   6.0000000   6.0000000   6.0000000   6.0000000   6.0000000   6.0000000   6.0000000   6.0000000

  Atom        11          12          13          14          15          16          17          18          19          20
 IAtWgt=           1           1          14          14          12          12           1           1         187          12
 AtmWgt=   1.0078250   1.0078250  14.0030740  14.0030740  12.0000000  12.0000000   1.0078250   1.0078250 186.9560000  12.0000000
 NucSpn=           1           1           2           2           0           0           1           1           5           0
 AtZEff=  -0.0000000  -0.0000000  -0.0000000  -0.0000000  -0.0000000  -0.0000000  -0.0000000  -0.0000000  -0.0000000  -0.0000000
 NQMom=    0.0000000   0.0000000   2.0440000   2.0440000   0.0000000   0.0000000   0.0000000   0.0000000 207.0000000   0.0000000
 NMagM=    2.7928460   2.7928460   0.4037610   0.4037610   0.0000000   0.0000000   2.7928460   2.7928460   3.2197000   0.0000000
 AtZNuc=   1.0000000   1.0000000   7.0000000   7.0000000   6.0000000   6.0000000   1.0000000   1.0000000  75.0000000   6.0000000

  Atom        21          22          23          24          25          26          27          28
 IAtWgt=          35          16          12          12          16           1          16           1
 AtmWgt=  34.9688527  15.9949146  12.0000000  12.0000000  15.9949146   1.0078250  15.9949146   1.0078250
 NucSpn=           3           0           0           0           0           1           0           1
 AtZEff=  -0.0000000  -0.0000000  -0.0000000  -0.0000000  -0.0000000  -0.0000000  -0.0000000  -0.0000000
 NQMom=   -8.1650000   0.0000000   0.0000000   0.0000000   0.0000000   0.0000000   0.0000000   0.0000000
 NMagM=    0.8218740   0.0000000   0.0000000   0.0000000   0.0000000   2.7928460   0.0000000   2.7928460
 AtZNuc=  17.0000000   8.0000000   6.0000000   6.0000000   8.0000000   1.0000000   8.0000000   1.0000000
 Leave Link  101 at Wed Oct 13 11:25:49 2021, MaxMem=  7918845952 cpu:               4.3 elap:               0.5
 (Enter /gpfs/loomis/apps/avx/software/Gaussian/16-C.01_AVX/g16/l103.exe)

 GradGradGradGradGradGradGradGradGradGradGradGradGradGradGradGradGradGrad
 Berny optimization.
 Initialization pass.
                           ----------------------------
                           !    Initial Parameters    !
                           ! (Angstroms and Degrees)  !
 --------------------------                            --------------------------
 ! Name  Definition              Value          Derivative Info.                !
 --------------------------------------------------------------------------------
 ! R1    R(1,3)                  1.0699         estimate D2E/DX2                !
 ! R2    R(2,4)                  1.07           estimate D2E/DX2                !
 ! R3    R(3,5)                  1.3992         estimate D2E/DX2                !
 ! R4    R(3,7)                  1.3963         estimate D2E/DX2                !
 ! R5    R(4,6)                  1.3993         estimate D2E/DX2                !
 ! R6    R(4,8)                  1.3965         estimate D2E/DX2                !
 ! R7    R(5,9)                  1.4043         estimate D2E/DX2                !
 ! R8    R(5,28)                 1.0701         estimate D2E/DX2                !
 ! R9    R(6,10)                 1.4043         estimate D2E/DX2                !
 ! R10   R(6,26)                 1.0699         estimate D2E/DX2                !
 ! R11   R(7,8)                  1.5352         estimate D2E/DX2                !
 ! R12   R(7,13)                 1.3332         estimate D2E/DX2                !
 ! R13   R(8,14)                 1.3328         estimate D2E/DX2                !
 ! R14   R(9,11)                 1.07           estimate D2E/DX2                !
 ! R15   R(9,15)                 1.4063         estimate D2E/DX2                !
 ! R16   R(10,12)                1.0699         estimate D2E/DX2                !
 ! R17   R(10,16)                1.4064         estimate D2E/DX2                !
 ! R18   R(13,15)                1.3397         estimate D2E/DX2                !
 ! R19   R(13,19)                1.9808         estimate D2E/DX2                !
 ! R20   R(14,16)                1.3397         estimate D2E/DX2                !
 ! R21   R(14,19)                1.9831         estimate D2E/DX2                !
 ! R22   R(15,17)                1.0698         estimate D2E/DX2                !
 ! R23   R(16,18)                1.0699         estimate D2E/DX2                !
 ! R24   R(19,20)                2.0497         estimate D2E/DX2                !
 ! R25   R(19,21)                2.2698         estimate D2E/DX2                !
 ! R26   R(19,23)                2.0522         estimate D2E/DX2                !
 ! R27   R(19,24)                2.0502         estimate D2E/DX2                !
 ! R28   R(20,22)                1.259          estimate D2E/DX2                !
 ! R29   R(23,25)                1.2587         estimate D2E/DX2                !
 ! R30   R(24,27)                1.2581         estimate D2E/DX2                !
 ! A1    A(1,3,5)              120.8869         estimate D2E/DX2                !
 ! A2    A(1,3,7)              120.8791         estimate D2E/DX2                !
 ! A3    A(5,3,7)              118.2335         estimate D2E/DX2                !
 ! A4    A(2,4,6)              120.896          estimate D2E/DX2                !
 ! A5    A(2,4,8)              120.8804         estimate D2E/DX2                !
 ! A6    A(6,4,8)              118.2232         estimate D2E/DX2                !
 ! A7    A(3,5,9)              118.9532         estimate D2E/DX2                !
 ! A8    A(3,5,28)             120.5219         estimate D2E/DX2                !
 ! A9    A(9,5,28)             120.5248         estimate D2E/DX2                !
 ! A10   A(4,6,10)             118.9425         estimate D2E/DX2                !
 ! A11   A(4,6,26)             120.5375         estimate D2E/DX2                !
 ! A12   A(10,6,26)            120.5199         estimate D2E/DX2                !
 ! A13   A(3,7,8)              124.2921         estimate D2E/DX2                !
 ! A14   A(3,7,13)             121.6831         estimate D2E/DX2                !
 ! A15   A(8,7,13)             114.0197         estimate D2E/DX2                !
 ! A16   A(4,8,7)              124.3248         estimate D2E/DX2                !
 ! A17   A(4,8,14)             121.6976         estimate D2E/DX2                !
 ! A18   A(7,8,14)             113.9727         estimate D2E/DX2                !
 ! A19   A(5,9,11)             120.2178         estimate D2E/DX2                !
 ! A20   A(5,9,15)             119.6053         estimate D2E/DX2                !
 ! A21   A(11,9,15)            120.1768         estimate D2E/DX2                !
 ! A22   A(6,10,12)            120.1944         estimate D2E/DX2                !
 ! A23   A(6,10,16)            119.6147         estimate D2E/DX2                !
 ! A24   A(12,10,16)           120.1908         estimate D2E/DX2                !
 ! A25   A(7,13,15)            121.926          estimate D2E/DX2                !
 ! A26   A(7,13,19)            114.4631         estimate D2E/DX2                !
 ! A27   A(15,13,19)           123.6109         estimate D2E/DX2                !
 ! A28   A(8,14,16)            121.9273         estimate D2E/DX2                !
 ! A29   A(8,14,19)            114.4314         estimate D2E/DX2                !
 ! A30   A(16,14,19)           123.6412         estimate D2E/DX2                !
 ! A31   A(9,15,13)            119.5136         estimate D2E/DX2                !
 ! A32   A(9,15,17)            120.2583         estimate D2E/DX2                !
 ! A33   A(13,15,17)           120.2277         estimate D2E/DX2                !
 ! A34   A(10,16,14)           119.5106         estimate D2E/DX2                !
 ! A35   A(10,16,18)           120.233          estimate D2E/DX2                !
 ! A36   A(14,16,18)           120.256          estimate D2E/DX2                !
 ! A37   A(13,19,14)            82.7233         estimate D2E/DX2                !
 ! A38   A(13,19,20)            92.5423         estimate D2E/DX2                !
 ! A39   A(13,19,21)            93.0998         estimate D2E/DX2                !
 ! A40   A(13,19,24)            88.0255         estimate D2E/DX2                !
 ! A41   A(14,19,20)            94.6031         estimate D2E/DX2                !
 ! A42   A(14,19,21)            90.3599         estimate D2E/DX2                !
 ! A43   A(14,19,23)            97.2237         estimate D2E/DX2                !
 ! A44   A(20,19,23)            87.46           estimate D2E/DX2                !
 ! A45   A(20,19,24)            89.787          estimate D2E/DX2                !
 ! A46   A(21,19,23)            86.9019         estimate D2E/DX2                !
 ! A47   A(21,19,24)            86.1298         estimate D2E/DX2                !
 ! A48   A(23,19,24)            92.0275         estimate D2E/DX2                !
 ! A49   L(13,19,23,14,-1)     179.947          estimate D2E/DX2                !
 ! A50   L(14,19,24,13,-1)     170.7488         estimate D2E/DX2                !
 ! A51   L(20,19,21,13,-1)     185.6421         estimate D2E/DX2                !
 ! A52   L(19,20,22,11,-1)     180.138          estimate D2E/DX2                !
 ! A53   L(19,23,25,10,-1)     180.1141         estimate D2E/DX2                !
 ! A54   L(19,24,27,9,-1)      179.9332         estimate D2E/DX2                !
 ! A55   L(13,19,23,14,-2)     180.0017         estimate D2E/DX2                !
 ! A56   L(14,19,24,13,-2)     184.0182         estimate D2E/DX2                !
 ! A57   L(20,19,21,13,-2)     175.7135         estimate D2E/DX2                !
 ! A58   L(19,20,22,11,-2)     180.0792         estimate D2E/DX2                !
 ! A59   L(19,23,25,10,-2)     179.8434         estimate D2E/DX2                !
 ! A60   L(19,24,27,9,-2)      180.1399         estimate D2E/DX2                !
 ! D1    D(1,3,5,9)            179.6172         estimate D2E/DX2                !
 ! D2    D(1,3,5,28)            -0.2585         estimate D2E/DX2                !
 ! D3    D(7,3,5,9)             -0.146          estimate D2E/DX2                !
 ! D4    D(7,3,5,28)           179.9783         estimate D2E/DX2                !
 ! D5    D(1,3,7,8)             -2.8795         estimate D2E/DX2                !
 ! D6    D(1,3,7,13)           177.9955         estimate D2E/DX2                !
 ! D7    D(5,3,7,8)            176.8837         estimate D2E/DX2                !
 ! D8    D(5,3,7,13)            -2.2413         estimate D2E/DX2                !
 ! D9    D(2,4,6,10)          -179.6293         estimate D2E/DX2                !
 ! D10   D(2,4,6,26)             0.2544         estimate D2E/DX2                !
 ! D11   D(8,4,6,10)             0.1434         estimate D2E/DX2                !
 ! D12   D(8,4,6,26)          -179.9729         estimate D2E/DX2                !
 ! D13   D(2,4,8,7)              2.8636         estimate D2E/DX2                !
 ! D14   D(2,4,8,14)          -177.9917         estimate D2E/DX2                !
 ! D15   D(6,4,8,7)           -176.9091         estimate D2E/DX2                !
 ! D16   D(6,4,8,14)             2.2356         estimate D2E/DX2                !
 ! D17   D(3,5,9,11)          -178.936          estimate D2E/DX2                !
 ! D18   D(3,5,9,15)             1.1734         estimate D2E/DX2                !
 ! D19   D(28,5,9,11)            0.9397         estimate D2E/DX2                !
 ! D20   D(28,5,9,15)         -178.951          estimate D2E/DX2                !
 ! D21   D(4,6,10,12)          178.9138         estimate D2E/DX2                !
 ! D22   D(4,6,10,16)           -1.1849         estimate D2E/DX2                !
 ! D23   D(26,6,10,12)          -0.9699         estimate D2E/DX2                !
 ! D24   D(26,6,10,16)         178.9314         estimate D2E/DX2                !
 ! D25   D(3,7,8,4)             -0.0036         estimate D2E/DX2                !
 ! D26   D(3,7,8,14)          -179.2072         estimate D2E/DX2                !
 ! D27   D(13,7,8,4)           179.1812         estimate D2E/DX2                !
 ! D28   D(13,7,8,14)           -0.0224         estimate D2E/DX2                !
 ! D29   D(3,7,13,15)            3.6538         estimate D2E/DX2                !
 ! D30   D(3,7,13,19)         -176.2841         estimate D2E/DX2                !
 ! D31   D(8,7,13,15)         -175.5548         estimate D2E/DX2                !
 ! D32   D(8,7,13,19)            4.5073         estimate D2E/DX2                !
 ! D33   D(4,8,14,16)           -3.6234         estimate D2E/DX2                !
 ! D34   D(4,8,14,19)          176.3056         estimate D2E/DX2                !
 ! D35   D(7,8,14,16)          175.6036         estimate D2E/DX2                !
 ! D36   D(7,8,14,19)           -4.4674         estimate D2E/DX2                !
 ! D37   D(5,9,15,13)            0.0915         estimate D2E/DX2                !
 ! D38   D(5,9,15,17)          179.8558         estimate D2E/DX2                !
 ! D39   D(11,9,15,13)        -179.7992         estimate D2E/DX2                !
 ! D40   D(11,9,15,17)          -0.0349         estimate D2E/DX2                !
 ! D41   D(6,10,16,14)          -0.056          estimate D2E/DX2                !
 ! D42   D(6,10,16,18)        -179.8297         estimate D2E/DX2                !
 ! D43   D(12,10,16,14)        179.8453         estimate D2E/DX2                !
 ! D44   D(12,10,16,18)          0.0716         estimate D2E/DX2                !
 ! D45   D(7,13,15,9)           -2.5172         estimate D2E/DX2                !
 ! D46   D(7,13,15,17)         177.7184         estimate D2E/DX2                !
 ! D47   D(19,13,15,9)         177.4149         estimate D2E/DX2                !
 ! D48   D(19,13,15,17)         -2.3495         estimate D2E/DX2                !
 ! D49   D(7,13,19,14)          -5.4711         estimate D2E/DX2                !
 ! D50   D(7,13,19,20)         -99.7904         estimate D2E/DX2                !
 ! D51   D(7,13,19,21)          84.4961         estimate D2E/DX2                !
 ! D52   D(7,13,19,24)         170.5107         estimate D2E/DX2                !
 ! D53   D(15,13,19,14)        174.5922         estimate D2E/DX2                !
 ! D54   D(15,13,19,20)         80.2729         estimate D2E/DX2                !
 ! D55   D(15,13,19,21)        -95.4406         estimate D2E/DX2                !
 ! D56   D(15,13,19,24)         -9.426          estimate D2E/DX2                !
 ! D57   D(8,14,16,10)           2.4721         estimate D2E/DX2                !
 ! D58   D(8,14,16,18)        -177.7543         estimate D2E/DX2                !
 ! D59   D(19,14,16,10)       -177.4502         estimate D2E/DX2                !
 ! D60   D(19,14,16,18)          2.3234         estimate D2E/DX2                !
 ! D61   D(8,14,19,13)           5.4583         estimate D2E/DX2                !
 ! D62   D(8,14,19,20)          97.4401         estimate D2E/DX2                !
 ! D63   D(8,14,19,21)         -87.6207         estimate D2E/DX2                !
 ! D64   D(8,14,19,23)        -174.5434         estimate D2E/DX2                !
 ! D65   D(16,14,19,13)       -174.6141         estimate D2E/DX2                !
 ! D66   D(16,14,19,20)        -82.6323         estimate D2E/DX2                !
 ! D67   D(16,14,19,21)         92.3069         estimate D2E/DX2                !
 ! D68   D(16,14,19,23)          5.3842         estimate D2E/DX2                !
 --------------------------------------------------------------------------------
 Trust Radius=3.00D-01 FncErr=1.00D-07 GrdErr=1.00D-06 EigMax=2.50D+02 EigMin=1.00D-04
 Number of steps in this run=    168 maximum allowed number of steps=    168.
 GradGradGradGradGradGradGradGradGradGradGradGradGradGradGradGradGradGrad

 Leave Link  103 at Wed Oct 13 11:25:49 2021, MaxMem=  7918845952 cpu:               0.3 elap:               0.0
 (Enter /gpfs/loomis/apps/avx/software/Gaussian/16-C.01_AVX/g16/l202.exe)
                          Input orientation:                          
 ---------------------------------------------------------------------
 Center     Atomic      Atomic             Coordinates (Angstroms)
 Number     Number       Type             X           Y           Z
 ---------------------------------------------------------------------
      1          1           0        0.000000    0.000000    0.000000
      2          1           0        0.000000    0.000000    2.213280
      3          6           0        0.971484    0.000000   -0.448338
      4          6           0        0.971805   -0.000488    2.661042
      5          6           0        1.121133    0.060208   -1.838201
      6          6           0        1.122555    0.058638    4.050985
      7          6           0        2.123800   -0.055011    0.338339
      8          6           0        2.123825   -0.055281    1.873525
      9          6           0        2.415437    0.066032   -2.382958
     10          6           0        2.417392    0.063570    4.594522
     11          1           0        2.553637    0.128756   -3.442144
     12          1           0        2.556181    0.125815    5.653537
     13          7           0        3.340876   -0.095527   -0.204373
     14          7           0        3.341014   -0.096468    2.415033
     15          6           0        3.529360   -0.013409   -1.528177
     16          6           0        3.530631   -0.015891    3.738804
     17          1           0        4.519968   -0.012114   -1.932081
     18          1           0        4.521432   -0.015649    4.142419
     19         75           0        4.816234   -0.286758    1.103456
     20          6           0        5.246783    1.716464    1.048371
     21         17           0        4.616160   -2.546257    1.184678
     22          8           0        5.514003    2.946371    1.016510
     23          6           0        6.343553   -0.484661    2.459867
     24          6           0        6.083638   -0.594856   -0.478335
     25          8           0        7.281480   -0.609467    3.289908
     26          1           0        0.265073    0.101310    4.689488
     27          8           0        6.859657   -0.786669   -1.449800
     28          1           0        0.262838    0.103167   -2.475881
 ---------------------------------------------------------------------
                    Distance matrix (angstroms):
                    1          2          3          4          5
     1  H    0.000000
     2  H    2.213280   0.000000
     3  C    1.069947   2.833371   0.000000
     4  C    2.832940   1.069998   3.109380   0.000000
     5  C    2.153961   4.204172   1.399192   4.502129   0.000000
     6  C    4.204052   2.154235   4.502241   1.399344   5.889187
     7  C    2.151285   2.833542   1.396324   2.593263   2.399154
     8  C    2.832629   2.151540   2.592681   1.396544   3.846509
     9  C    3.393698   5.192697   2.414978   5.246945   1.404286
    10  C    5.192058   3.393839   5.246440   2.414989   6.562029
    11  H    4.287889   6.206566   3.388608   6.306169   2.151604
    12  H    6.205834   4.287804   6.305551   3.388396   7.628224
    13  N    3.348484   4.125000   2.383834   3.719157   2.760599
    14  N    4.123598   3.348490   3.717912   2.383880   4.800252
    15  C    3.846022   5.143448   2.776502   4.908239   2.429216
    16  C    5.142398   3.846145   4.907305   2.776580   6.075726
    17  H    4.915608   6.133048   3.846217   5.803997   3.400901
    18  H    6.132147   4.915808   5.803225   3.846370   6.880087
    19  Re   4.949339   4.950763   4.156008   4.157843   4.735769
    20  C    5.619080   5.641985   4.844024   4.880991   5.300610
    21  Cl   5.403316   5.371255   4.736436   4.684219   5.305344
    22  O    6.333926   6.365342   5.609043   5.658623   5.981356
    23  C    6.821034   6.366817   6.127942   5.397274   6.785568
    24  C    6.131338   6.679019   5.146735   6.028250   5.186984
    25  O    8.013419   7.385833   7.359482   6.370112   8.043372
    26  H    4.698066   2.492416   5.187151   2.150448   6.583711
    27  O    7.055187   7.816131   6.024314   7.223842   5.813667
    28  H    2.491929   4.697654   2.150291   5.186651   1.070118
                    6          7          8          9         10
     6  C    0.000000
     7  C    3.846967   0.000000
     8  C    2.399345   1.535186   0.000000
     9  C    6.562563   2.739555   4.268185   0.000000
    10  C    1.404301   4.267945   2.739368   6.977481   0.000000
    11  H    7.628886   3.809275   5.336191   1.070004   8.038085
    12  H    2.151272   5.335821   3.808966   8.037950   1.069883
    13  N    4.801332   1.333211   2.408421   2.372503   4.889533
    14  N    2.760789   2.407486   1.332845   4.889153   2.372522
    15  C    6.076591   2.336923   3.680877   1.406337   6.223331
    16  C    2.429371   3.680199   2.336647   6.223049   1.406368
    17  H    6.880735   3.301253   4.497333   2.153705   6.857340
    18  H    3.400918   4.496800   3.301207   6.857290   2.153522
    19  Re   4.738195   2.808614   2.809920   4.247749   4.250261
    20  C    5.364079   3.659958   3.684132   4.744941   4.828323
    21  Cl   5.215982   3.624149   3.590432   4.939156   4.824190
    22  O    6.068925   4.578393   4.608437   5.427139   5.540912
    23  C    5.485039   4.742551   4.281853   6.259897   4.502449
    24  C    6.749381   4.079057   4.637079   4.185697   6.293549
    25  O    6.241631   5.968320   5.377235   7.504404   5.080782
    26  H    1.069944   4.734111   3.377741   7.392213   2.154743
    27  O    7.992967   5.114793   5.831596   4.620495   7.549202
    28  H    6.583394   3.377578   4.733467   2.154925   7.391500
                   11         12         13         14         15
    11  H    0.000000
    12  H    9.095682   0.000000
    13  N    3.339642   5.914377   0.000000
    14  N    5.914153   3.339653   2.619406   0.000000
    15  C    2.153024   7.248688   1.339674   3.948580   0.000000
    16  C    7.248548   2.153100   3.948543   1.339707   5.266981
    17  H    2.483262   7.836906   2.093369   4.504937   1.069788
    18  H    7.837006   2.483083   4.504963   2.093748   5.756724
    19  Re   5.094554   5.097185   1.980825   1.983109   2.942152
    20  C    5.471615   5.565704   2.912930   2.964194   3.546915
    21  Cl   5.728628   5.599480   3.092230   3.023448   3.867303
    22  O    6.048331   6.181121   3.932706   3.992069   4.378874
    23  C    7.040843   4.991632   4.033071   3.027861   4.903698
    24  C    4.665693   7.110708   2.801272   4.017705   2.822160
    25  O    8.259418   5.334401   5.291738   4.068887   6.135767
    26  H    8.447586   2.485793   5.783527   3.830623   7.023396
    27  O    4.832106   8.355234   3.796128   5.272017   3.419789
    28  H    2.486379   8.446737   3.830607   5.782392   3.403219
                   16         17         18         19         20
    16  C    0.000000
    17  H    5.756539   0.000000
    18  H    1.069856   6.074501   0.000000
    19  Re   2.944690   3.062302   3.065241   0.000000
    20  C    3.631069   3.521269   3.619321   2.049708   0.000000
    21  Cl   3.755620   4.018124   3.893735   2.269793   4.311271
    22  O    4.485492   4.293592   4.419283   3.308710   1.259004
    23  C    3.125372   4.778909   2.524099   2.052247   2.835521
    24  C    4.963597   2.213150   4.911958   2.050195   2.893675
    25  O    3.823965   5.937335   2.949111   3.310913   3.817648
    26  H    3.403146   7.871606   4.292965   5.807176   6.378392
    27  O    6.212738   2.511310   6.110211   3.308263   3.886888
    28  H    7.022460   4.293270   7.870936   5.804922   6.313698
                   21         22         23         24         25
    21  Cl   0.000000
    22  O    5.568066   0.000000
    23  C    2.976603   3.813583   0.000000
    24  C    2.954161   3.885786   2.951733   0.000000
    25  O    3.909869   4.575620   1.258671   3.954072   0.000000
    26  H    6.182658   7.009736   6.500960   7.813241   7.189853
    27  O    3.881997   4.672158   3.955131   1.258071   4.761739
    28  H    6.274596   6.917755   7.853804   6.193476   9.111175
                   26         27         28
    26  H    0.000000
    27  O    9.053613   0.000000
    28  H    7.165369   6.735182   0.000000
 Symmetry turned off by external request.
 Stoichiometry    C13H8ClN2O3Re
 Framework group  C1[X(C13H8ClN2O3Re)]
 Deg. of freedom    78
 Full point group                 C1      NOp   1
 Rotational constants (GHZ):           0.3337940           0.3053827           0.2143406
 Leave Link  202 at Wed Oct 13 11:25:49 2021, MaxMem=  7918845952 cpu:               0.1 elap:               0.0
 (Enter /gpfs/loomis/apps/avx/software/Gaussian/16-C.01_AVX/g16/l301.exe)
 General basis read from cards:  (5D, 7F)
 Centers:       3      4      5      6      7      8      9     10     15     16
 Centers:      20     23     24      1      2     11     12     17     18     26
 Centers:      28     13     14     21     22     25     27
 aug-cc-pvdz
 ****
 Centers:      19
 LANL2DZ
 ****
 ======================================================================================================
                                       Pseudopotential Parameters
 ======================================================================================================
  Center     Atomic      Valence      Angular      Power
  Number     Number     Electrons     Momentum     of R      Exponent        Coefficient   SO-Coeffient
 ======================================================================================================
    1          1
                                   No pseudopotential on this center.
    2          1
                                   No pseudopotential on this center.
    3          6
                                   No pseudopotential on this center.
    4          6
                                   No pseudopotential on this center.
    5          6
                                   No pseudopotential on this center.
    6          6
                                   No pseudopotential on this center.
    7          6
                                   No pseudopotential on this center.
    8          6
                                   No pseudopotential on this center.
    9          6
                                   No pseudopotential on this center.
   10          6
                                   No pseudopotential on this center.
   11          1
                                   No pseudopotential on this center.
   12          1
                                   No pseudopotential on this center.
   13          7
                                   No pseudopotential on this center.
   14          7
                                   No pseudopotential on this center.
   15          6
                                   No pseudopotential on this center.
   16          6
                                   No pseudopotential on this center.
   17          1
                                   No pseudopotential on this center.
   18          1
                                   No pseudopotential on this center.
   19         75           15
                                      G and up 
                                                     1     1833.8143836       -0.14971040    0.00000000
                                                     2      414.0589456    -1669.25557810    0.00000000
                                                     2       59.0349540     -346.66611290    0.00000000
                                                     2       11.9177094      -96.66848920    0.00000000
                                                     2        3.6531764      -11.07385670    0.00000000
                                                     2        1.2764184       -0.57985520    0.00000000
                                      S - G
                                                     0      247.0023085        3.14971040    0.00000000
                                                     1      631.7195767       45.29699690    0.00000000
                                                     2      249.2800441     1116.42795850    0.00000000
                                                     2       84.2947315      793.64190650    0.00000000
                                                     2       23.0407912      318.20991930    0.00000000
                                                     2        4.2997111      586.31050250    0.00000000
                                                     2        4.0974390     -475.69041640    0.00000000
                                      P - G
                                                     0      193.6897726        2.14971040    0.00000000
                                                     1       56.9308394       64.22957360    0.00000000
                                                     2       18.7227602      218.85046070    0.00000000
                                                     2        3.7340020      344.41891680    0.00000000
                                                     2        3.5127483     -260.47272670    0.00000000
                                      D - G
                                                     0      126.2340824        3.14971040    0.00000000
                                                     1       80.7090826       46.57148680    0.00000000
                                                     2       42.5529714      304.38345950    0.00000000
                                                     2       13.4074494      157.15896520    0.00000000
                                                     2        3.6904228       48.57012110    0.00000000
                                      F - G
                                                     0      112.7786459        3.95696100    0.00000000
                                                     1       56.7815968       52.35867810    0.00000000
                                                     2       28.5831966      236.03408240    0.00000000
                                                     2        8.5734158      116.57872660    0.00000000
                                                     2        2.0892721       11.10505300    0.00000000
   20          6
                                   No pseudopotential on this center.
   21         17
                                   No pseudopotential on this center.
   22          8
                                   No pseudopotential on this center.
   23          6
                                   No pseudopotential on this center.
   24          6
                                   No pseudopotential on this center.
   25          8
                                   No pseudopotential on this center.
   26          1
                                   No pseudopotential on this center.
   27          8
                                   No pseudopotential on this center.
   28          1
                                   No pseudopotential on this center.
 ======================================================================================================
 Ernie: Thresh=  0.10000D-02 Tol=  0.10000D-05 Strict=F.
 Ernie:  47 primitive shells out of 576 were deleted.
   535 basis functions,   986 primitive gaussians,   575 cartesian basis functions
    78 alpha electrons       78 beta electrons
       nuclear repulsion energy      1790.3549035658 Hartrees.
 IExCor= 4639 DFT=T Ex+Corr=wB97XD ExCW=0 ScaHFX=  1.000000
 ScaDFX=  1.000000  1.000000  1.000000  1.000000 ScalE2=  1.000000  1.000000
 IRadAn=      5 IRanWt=     -1 IRanGd=            0 ICorTp=0 IEmpDi=121
 HFx  wShort=  0.000000 wLong=  0.200000 cFull=  0.222036 cShort=  0.000000 cLong=  0.777964
 DFx  wShort=  0.000000 wLong=  0.200000 cFull=  0.000000 cShort=  0.000000 cLong=  1.000000
 NAtoms=   28 NActive=   28 NUniq=   28 SFac= 1.00D+00 NAtFMM=   60 NAOKFM=F Big=F
 Integral buffers will be    131072 words long.
 Raffenetti 2 integral format.
 Two-electron integral symmetry is turned off.
 R6Disp:  Grimme-D2 Dispersion energy=       -0.0271044164 Hartrees.
 Nuclear repulsion after empirical dispersion term =     1790.3277991494 Hartrees.
 Leave Link  301 at Wed Oct 13 11:25:49 2021, MaxMem=  7918845952 cpu:               0.8 elap:               0.1
 (Enter /gpfs/loomis/apps/avx/software/Gaussian/16-C.01_AVX/g16/l302.exe)
 NPDir=0 NMtPBC=     1 NCelOv=     1 NCel=       1 NClECP=     1 NCelD=      1
         NCelK=      1 NCelE2=     1 NClLst=     1 CellRange=     0.0.
 One-electron integrals computed using PRISM.
   1 Symmetry operations used in ECPInt.
 ECPInt:  NShTT=   24531 NPrTT=  141152 LenC2=   23842 LenP2D=   87254.
 LDataN:  DoStor=T MaxTD1= 6 Len=  172
 NBasis=   535 RedAO= T EigKep=  2.31D-06  NBF=   535
 NBsUse=   534 1.00D-06 EigRej=  8.30D-07 NBFU=   534
 Precomputing XC quadrature grid using
 IXCGrd= 4 IRadAn=           5 IRanWt=          -1 IRanGd=           0 AccXCQ= 0.00D+00.
 Defaulting to unpruned grid for atomic number  75.
 Generated NRdTot=       0 NPtTot=           0 NUsed=           0 NTot=          32
 NSgBfM=   575   575   575   575   575 MxSgAt=    28 MxSgA2=    28.
 Leave Link  302 at Wed Oct 13 11:25:50 2021, MaxMem=  7918845952 cpu:              10.3 elap:               0.9
 (Enter /gpfs/loomis/apps/avx/software/Gaussian/16-C.01_AVX/g16/l303.exe)
 DipDrv:  MaxL=1.
 Leave Link  303 at Wed Oct 13 11:25:50 2021, MaxMem=  7918845952 cpu:               0.9 elap:               0.1
 (Enter /gpfs/loomis/apps/avx/software/Gaussian/16-C.01_AVX/g16/l401.exe)
 ExpMin= 2.80D-02 ExpMax= 1.28D+05 ExpMxC= 1.24D+03 IAcc=3 IRadAn=         5 AccDes= 0.00D+00
 Harris functional with IExCor= 4639 and IRadAn=       5 diagonalized for initial guess.
 HarFok:  IExCor= 4639 AccDes= 0.00D+00 IRadAn=         5 IDoV= 1 UseB2=F ITyADJ=14
 ICtDFT=  3500011 ScaDFX=  1.000000  1.000000  1.000000  1.000000
 Defaulting to unpruned grid for atomic number  75.
 FoFCou: FMM=F IPFlag=           0 FMFlag=      100000 FMFlg1=           0
         NFxFlg=           0 DoJE=T BraDBF=F KetDBF=T FulRan=T
         wScrn=  0.000000 ICntrl=       500 IOpCl=  0 I1Cent=   200000004 NGrid=           0
         NMat0=    1 NMatS0=      1 NMatT0=    0 NMatD0=    1 NMtDS0=    0 NMtDT0=    0
 Symmetry not used in FoFCou.
 Harris En= -1329.83346926324    
 JPrj=0 DoOrth=F DoCkMO=F.
 Leave Link  401 at Wed Oct 13 11:25:54 2021, MaxMem=  7918845952 cpu:              44.9 elap:               3.8
 (Enter /gpfs/loomis/apps/avx/software/Gaussian/16-C.01_AVX/g16/l502.exe)
 Two-electron integral symmetry not used.
 Closed shell SCF:
 Using DIIS extrapolation, IDIIS=  1040.
 NGot=  7918845952 LenX=  7918173137 LenY=  7917841937
 Requested convergence on RMS density matrix=1.00D-08 within 128 cycles.
 Requested convergence on MAX density matrix=1.00D-06.
 Requested convergence on             energy=1.00D-06.
 No special actions if energy rises.
 Fock matrices will be formed incrementally for  20 cycles.

 Cycle   1  Pass 1  IDiag  1:
 FoFJK:  IHMeth= 1 ICntrl=       0 DoSepK=T KAlg= 0 I1Cent=           0 FoldK=F
 IRaf=         1 NMat=       1 IRICut=       1 DoRegI=T DoRafI=F ISym2E= 0 IDoP0=0 IntGTp=1.
 FoFCou: FMM=F IPFlag=           0 FMFlag=      100000 FMFlg1=           0
         NFxFlg=           0 DoJE=T BraDBF=F KetDBF=F FulRan=T
         wScrn=  0.000000 ICntrl=       500 IOpCl=  0 I1Cent=           0 NGrid=           0
         NMat0=    1 NMatS0=      1 NMatT0=    0 NMatD0=    1 NMtDS0=    0 NMtDT0=    0
 Symmetry not used in FoFCou.
 Defaulting to unpruned grid for atomic number  75.
 Defaulting to unpruned grid for atomic number  75.
 Defaulting to unpruned grid for atomic number  75.
 Defaulting to unpruned grid for atomic number  75.
 Defaulting to unpruned grid for atomic number  75.
 Defaulting to unpruned grid for atomic number  75.
 Defaulting to unpruned grid for atomic number  75.
 Defaulting to unpruned grid for atomic number  75.
 Defaulting to unpruned grid for atomic number  75.
 Defaulting to unpruned grid for atomic number  75.
 Defaulting to unpruned grid for atomic number  75.
 Defaulting to unpruned grid for atomic number  75.
 E= -1373.94034196795    
 DIIS: error= 2.24D-02 at cycle   1 NSaved=   1.
 NSaved= 1 IEnMin= 1 EnMin= -1373.94034196795     IErMin= 1 ErrMin= 2.24D-02
 ErrMax= 2.24D-02  0.00D+00 EMaxC= 1.00D-01 BMatC= 8.78D-01 BMatP= 8.78D-01
 IDIUse=3 WtCom= 7.76D-01 WtEn= 2.24D-01
 Coeff-Com:  0.100D+01
 Coeff-En:   0.100D+01
 Coeff:      0.100D+01
 Gap=     0.322 Goal=   None    Shift=    0.000
 GapD=    0.322 DampG=1.000 DampE=0.250 DampFc=0.2500 IDamp=-1.
 Damping current iteration by 2.50D-01
 RMSDP=4.02D-02 MaxDP=3.78D+00              OVMax= 2.81D-01

 Cycle   2  Pass 1  IDiag  1:
 RMSU=  1.00D-02    CP:  9.87D-01
 E= -1374.15171362996     Delta-E=       -0.211371662005 Rises=F Damp=T
 DIIS: error= 1.41D-02 at cycle   2 NSaved=   2.
 NSaved= 2 IEnMin= 2 EnMin= -1374.15171362996     IErMin= 2 ErrMin= 1.41D-02
 ErrMax= 1.41D-02  0.00D+00 EMaxC= 1.00D-01 BMatC= 2.63D-01 BMatP= 8.78D-01
 IDIUse=3 WtCom= 8.59D-01 WtEn= 1.41D-01
 Coeff-Com: -0.585D+00 0.158D+01
 Coeff-En:   0.000D+00 0.100D+01
 Coeff:     -0.502D+00 0.150D+01
 Gap=     0.482 Goal=   None    Shift=    0.000
 RMSDP=1.66D-02 MaxDP=1.35D+00 DE=-2.11D-01 OVMax= 3.82D-01

 Cycle   3  Pass 1  IDiag  1:
 RMSU=  8.69D-03    CP:  7.94D-01  1.09D+00
 E= -1374.43933729006     Delta-E=       -0.287623660098 Rises=F Damp=F
 DIIS: error= 1.33D-02 at cycle   3 NSaved=   3.
 NSaved= 3 IEnMin= 3 EnMin= -1374.43933729006     IErMin= 3 ErrMin= 1.33D-02
 ErrMax= 1.33D-02  0.00D+00 EMaxC= 1.00D-01 BMatC= 1.43D-01 BMatP= 2.63D-01
 IDIUse=3 WtCom= 8.67D-01 WtEn= 1.33D-01
 Coeff-Com: -0.471D+00 0.893D+00 0.578D+00
 Coeff-En:   0.000D+00 0.000D+00 0.100D+01
 Coeff:     -0.409D+00 0.775D+00 0.634D+00
 Gap=     0.226 Goal=   None    Shift=    0.000
 RMSDP=4.35D-03 MaxDP=5.37D-01 DE=-2.88D-01 OVMax= 1.65D-01

 Cycle   4  Pass 1  IDiag  1:
 RMSU=  1.96D-03    CP:  7.90D-01  1.47D+00  8.97D-01
 E= -1374.48492593008     Delta-E=       -0.045588640026 Rises=F Damp=F
 DIIS: error= 1.21D-02 at cycle   4 NSaved=   4.
 NSaved= 4 IEnMin= 4 EnMin= -1374.48492593008     IErMin= 4 ErrMin= 1.21D-02
 ErrMax= 1.21D-02  0.00D+00 EMaxC= 1.00D-01 BMatC= 1.08D-01 BMatP= 1.43D-01
 IDIUse=3 WtCom= 8.79D-01 WtEn= 1.21D-01
 Coeff-Com: -0.184D+00 0.306D+00 0.478D+00 0.401D+00
 Coeff-En:   0.000D+00 0.000D+00 0.418D+00 0.582D+00
 Coeff:     -0.162D+00 0.269D+00 0.471D+00 0.423D+00
 Gap=     0.215 Goal=   None    Shift=    0.000
 RMSDP=2.56D-03 MaxDP=2.50D-01 DE=-4.56D-02 OVMax= 5.28D-02

 Cycle   5  Pass 1  IDiag  1:
 RMSU=  7.21D-04    CP:  7.73D-01  1.27D+00  9.49D-01  8.28D-01
 E= -1374.56656524339     Delta-E=       -0.081639313311 Rises=F Damp=F
 DIIS: error= 2.10D-03 at cycle   5 NSaved=   5.
 NSaved= 5 IEnMin= 5 EnMin= -1374.56656524339     IErMin= 5 ErrMin= 2.10D-03
 ErrMax= 2.10D-03  0.00D+00 EMaxC= 1.00D-01 BMatC= 3.50D-03 BMatP= 1.08D-01
 IDIUse=3 WtCom= 9.79D-01 WtEn= 2.10D-02
 Coeff-Com:  0.278D-01-0.472D-01 0.136D+00 0.204D+00 0.680D+00
 Coeff-En:   0.000D+00 0.000D+00 0.000D+00 0.000D+00 0.100D+01
 Coeff:      0.272D-01-0.462D-01 0.133D+00 0.200D+00 0.687D+00
 Gap=     0.227 Goal=   None    Shift=    0.000
 RMSDP=5.46D-04 MaxDP=2.68D-02 DE=-8.16D-02 OVMax= 1.84D-02

 Cycle   6  Pass 1  IDiag  1:
 RMSU=  4.40D-04    CP:  7.70D-01  1.25D+00  9.60D-01  7.95D-01  7.83D-01
 E= -1374.56956706548     Delta-E=       -0.003001822082 Rises=F Damp=F
 DIIS: error= 6.90D-04 at cycle   6 NSaved=   6.
 NSaved= 6 IEnMin= 6 EnMin= -1374.56956706548     IErMin= 6 ErrMin= 6.90D-04
 ErrMax= 6.90D-04  0.00D+00 EMaxC= 1.00D-01 BMatC= 3.29D-04 BMatP= 3.50D-03
 IDIUse=3 WtCom= 9.93D-01 WtEn= 6.90D-03
 Coeff-Com:  0.399D-01-0.603D-01-0.220D-02 0.771D-02 0.213D+00 0.802D+00
 Coeff-En:   0.000D+00 0.000D+00 0.000D+00 0.000D+00 0.000D+00 0.100D+01
 Coeff:      0.397D-01-0.599D-01-0.218D-02 0.766D-02 0.211D+00 0.804D+00
 Gap=     0.223 Goal=   None    Shift=    0.000
 RMSDP=3.29D-04 MaxDP=1.49D-02 DE=-3.00D-03 OVMax= 3.89D-03

 Cycle   7  Pass 1  IDiag  1:
 RMSU=  2.08D-04    CP:  7.68D-01  1.24D+00  9.67D-01  8.20D-01  8.83D-01
                    CP:  8.95D-01
 E= -1374.56990813314     Delta-E=       -0.000341067667 Rises=F Damp=F
 DIIS: error= 2.04D-04 at cycle   7 NSaved=   7.
 NSaved= 7 IEnMin= 7 EnMin= -1374.56990813314     IErMin= 7 ErrMin= 2.04D-04
 ErrMax= 2.04D-04  0.00D+00 EMaxC= 1.00D-01 BMatC= 5.84D-05 BMatP= 3.29D-04
 IDIUse=3 WtCom= 9.98D-01 WtEn= 2.04D-03
 Coeff-Com:  0.180D-01-0.245D-01-0.202D-01-0.323D-01-0.204D-01 0.331D+00
 Coeff-Com:  0.748D+00
 Coeff-En:   0.000D+00 0.000D+00 0.000D+00 0.000D+00 0.000D+00 0.000D+00
 Coeff-En:   0.100D+01
 Coeff:      0.180D-01-0.244D-01-0.202D-01-0.322D-01-0.203D-01 0.331D+00
 Coeff:      0.749D+00
 Gap=     0.223 Goal=   None    Shift=    0.000
 RMSDP=1.29D-04 MaxDP=7.24D-03 DE=-3.41D-04 OVMax= 3.72D-03

 Cycle   8  Pass 1  IDiag  1:
 RMSU=  5.20D-05    CP:  7.68D-01  1.23D+00  9.69D-01  8.20D-01  9.08D-01
                    CP:  1.01D+00  9.48D-01
 E= -1374.56997809350     Delta-E=       -0.000069960362 Rises=F Damp=F
 DIIS: error= 1.08D-04 at cycle   8 NSaved=   8.
 NSaved= 8 IEnMin= 8 EnMin= -1374.56997809350     IErMin= 8 ErrMin= 1.08D-04
 ErrMax= 1.08D-04  0.00D+00 EMaxC= 1.00D-01 BMatC= 8.90D-06 BMatP= 5.84D-05
 IDIUse=3 WtCom= 9.99D-01 WtEn= 1.08D-03
 Coeff-Com:  0.552D-02-0.679D-02-0.872D-02-0.166D-01-0.336D-01 0.524D-01
 Coeff-Com:  0.367D+00 0.641D+00
 Coeff-En:   0.000D+00 0.000D+00 0.000D+00 0.000D+00 0.000D+00 0.000D+00
 Coeff-En:   0.000D+00 0.100D+01
 Coeff:      0.552D-02-0.679D-02-0.871D-02-0.166D-01-0.336D-01 0.523D-01
 Coeff:      0.366D+00 0.642D+00
 Gap=     0.223 Goal=   None    Shift=    0.000
 RMSDP=6.31D-05 MaxDP=4.14D-03 DE=-7.00D-05 OVMax= 1.75D-03

 Cycle   9  Pass 1  IDiag  1:
 RMSU=  2.42D-05    CP:  7.67D-01  1.22D+00  9.69D-01  8.22D-01  9.19D-01
                    CP:  1.02D+00  1.00D+00  8.56D-01
 E= -1374.56998978682     Delta-E=       -0.000011693313 Rises=F Damp=F
 DIIS: error= 3.22D-05 at cycle   9 NSaved=   9.
 NSaved= 9 IEnMin= 9 EnMin= -1374.56998978682     IErMin= 9 ErrMin= 3.22D-05
 ErrMax= 3.22D-05  0.00D+00 EMaxC= 1.00D-01 BMatC= 1.15D-06 BMatP= 8.90D-06
 IDIUse=1 WtCom= 1.00D+00 WtEn= 0.00D+00
 Coeff-Com: -0.858D-03 0.136D-02 0.151D-02 0.699D-03-0.594D-02-0.580D-01
 Coeff-Com: -0.467D-02 0.236D+00 0.830D+00
 Coeff:     -0.858D-03 0.136D-02 0.151D-02 0.699D-03-0.594D-02-0.580D-01
 Coeff:     -0.467D-02 0.236D+00 0.830D+00
 Gap=     0.223 Goal=   None    Shift=    0.000
 RMSDP=2.05D-05 MaxDP=1.32D-03 DE=-1.17D-05 OVMax= 1.38D-03

 Cycle  10  Pass 1  IDiag  1:
 RMSU=  9.58D-06    CP:  7.67D-01  1.22D+00  9.69D-01  8.22D-01  9.23D-01
                    CP:  1.02D+00  1.03D+00  9.32D-01  1.18D+00
 E= -1374.56999292694     Delta-E=       -0.000003140120 Rises=F Damp=F
 DIIS: error= 1.35D-05 at cycle  10 NSaved=  10.
 NSaved=10 IEnMin=10 EnMin= -1374.56999292694     IErMin=10 ErrMin= 1.35D-05
 ErrMax= 1.35D-05  0.00D+00 EMaxC= 1.00D-01 BMatC= 2.70D-07 BMatP= 1.15D-06
 IDIUse=1 WtCom= 1.00D+00 WtEn= 0.00D+00
 Coeff-Com: -0.135D-02 0.179D-02 0.243D-02 0.349D-02 0.479D-02-0.426D-01
 Coeff-Com: -0.678D-01-0.733D-02 0.386D+00 0.720D+00
 Coeff:     -0.135D-02 0.179D-02 0.243D-02 0.349D-02 0.479D-02-0.426D-01
 Coeff:     -0.678D-01-0.733D-02 0.386D+00 0.720D+00
 Gap=     0.223 Goal=   None    Shift=    0.000
 RMSDP=7.67D-06 MaxDP=2.79D-04 DE=-3.14D-06 OVMax= 7.90D-04

 Cycle  11  Pass 1  IDiag  1:
 RMSU=  3.63D-06    CP:  7.67D-01  1.22D+00  9.70D-01  8.22D-01  9.26D-01
                    CP:  1.01D+00  1.03D+00  9.71D-01  1.31D+00  1.25D+00
 E= -1374.56999379018     Delta-E=       -0.000000863238 Rises=F Damp=F
 DIIS: error= 8.90D-06 at cycle  11 NSaved=  11.
 NSaved=11 IEnMin=11 EnMin= -1374.56999379018     IErMin=11 ErrMin= 8.90D-06
 ErrMax= 8.90D-06  0.00D+00 EMaxC= 1.00D-01 BMatC= 7.65D-08 BMatP= 2.70D-07
 IDIUse=1 WtCom= 1.00D+00 WtEn= 0.00D+00
 Coeff-Com: -0.572D-03 0.690D-03 0.940D-03 0.190D-02 0.525D-02-0.108D-01
 Coeff-Com: -0.372D-01-0.666D-01-0.257D-01 0.368D+00 0.764D+00
 Coeff:     -0.572D-03 0.690D-03 0.940D-03 0.190D-02 0.525D-02-0.108D-01
 Coeff:     -0.372D-01-0.666D-01-0.257D-01 0.368D+00 0.764D+00
 Gap=     0.223 Goal=   None    Shift=    0.000
 RMSDP=5.64D-06 MaxDP=2.81D-04 DE=-8.63D-07 OVMax= 5.69D-04

 Cycle  12  Pass 1  IDiag  1:
 RMSU=  1.95D-06    CP:  7.67D-01  1.22D+00  9.70D-01  8.22D-01  9.28D-01
                    CP:  1.01D+00  1.04D+00  9.76D-01  1.42D+00  1.40D+00
                    CP:  1.53D+00
 E= -1374.56999410542     Delta-E=       -0.000000315248 Rises=F Damp=F
 DIIS: error= 3.24D-06 at cycle  12 NSaved=  12.
 NSaved=12 IEnMin=12 EnMin= -1374.56999410542     IErMin=12 ErrMin= 3.24D-06
 ErrMax= 3.24D-06  0.00D+00 EMaxC= 1.00D-01 BMatC= 1.85D-08 BMatP= 7.65D-08
 IDIUse=1 WtCom= 1.00D+00 WtEn= 0.00D+00
 Coeff-Com:  0.107D-03-0.170D-03-0.305D-03-0.724D-04 0.126D-02 0.653D-02
 Coeff-Com:  0.495D-02-0.187D-01-0.123D+00-0.908D-01 0.302D+00 0.918D+00
 Coeff:      0.107D-03-0.170D-03-0.305D-03-0.724D-04 0.126D-02 0.653D-02
 Coeff:      0.495D-02-0.187D-01-0.123D+00-0.908D-01 0.302D+00 0.918D+00
 Gap=     0.223 Goal=   None    Shift=    0.000
 RMSDP=3.15D-06 MaxDP=1.71D-04 DE=-3.15D-07 OVMax= 3.66D-04

 Cycle  13  Pass 1  IDiag  1:
 RMSU=  1.11D-06    CP:  7.67D-01  1.22D+00  9.70D-01  8.23D-01  9.30D-01
                    CP:  1.01D+00  1.04D+00  9.75D-01  1.45D+00  1.58D+00
                    CP:  1.82D+00  1.48D+00
 E= -1374.56999419739     Delta-E=       -0.000000091967 Rises=F Damp=F
 DIIS: error= 2.21D-06 at cycle  13 NSaved=  13.
 NSaved=13 IEnMin=13 EnMin= -1374.56999419739     IErMin=13 ErrMin= 2.21D-06
 ErrMax= 2.21D-06  0.00D+00 EMaxC= 1.00D-01 BMatC= 3.33D-09 BMatP= 1.85D-08
 IDIUse=1 WtCom= 1.00D+00 WtEn= 0.00D+00
 Coeff-Com:  0.127D-03-0.166D-03-0.277D-03-0.291D-03-0.537D-03 0.375D-02
 Coeff-Com:  0.857D-02 0.724D-02-0.357D-01-0.112D+00-0.558D-01 0.325D+00
 Coeff-Com:  0.860D+00
 Coeff:      0.127D-03-0.166D-03-0.277D-03-0.291D-03-0.537D-03 0.375D-02
 Coeff:      0.857D-02 0.724D-02-0.357D-01-0.112D+00-0.558D-01 0.325D+00
 Coeff:      0.860D+00
 Gap=     0.223 Goal=   None    Shift=    0.000
 RMSDP=1.25D-06 MaxDP=7.60D-05 DE=-9.20D-08 OVMax= 1.46D-04

 Cycle  14  Pass 1  IDiag  1:
 RMSU=  5.24D-07    CP:  7.67D-01  1.22D+00  9.70D-01  8.23D-01  9.30D-01
                    CP:  1.01D+00  1.04D+00  9.74D-01  1.46D+00  1.61D+00
                    CP:  2.01D+00  1.64D+00  1.18D+00
 E= -1374.56999421088     Delta-E=       -0.000000013490 Rises=F Damp=F
 DIIS: error= 7.01D-07 at cycle  14 NSaved=  14.
 NSaved=14 IEnMin=14 EnMin= -1374.56999421088     IErMin=14 ErrMin= 7.01D-07
 ErrMax= 7.01D-07  0.00D+00 EMaxC= 1.00D-01 BMatC= 3.74D-10 BMatP= 3.33D-09
 IDIUse=1 WtCom= 1.00D+00 WtEn= 0.00D+00
 Coeff-Com:  0.375D-04-0.438D-04-0.458D-04-0.796D-04-0.418D-03 0.182D-03
 Coeff-Com:  0.215D-02 0.534D-02 0.937D-02-0.184D-01-0.620D-01-0.458D-01
 Coeff-Com:  0.247D+00 0.863D+00
 Coeff:      0.375D-04-0.438D-04-0.458D-04-0.796D-04-0.418D-03 0.182D-03
 Coeff:      0.215D-02 0.534D-02 0.937D-02-0.184D-01-0.620D-01-0.458D-01
 Coeff:      0.247D+00 0.863D+00
 Gap=     0.223 Goal=   None    Shift=    0.000
 RMSDP=3.78D-07 MaxDP=2.65D-05 DE=-1.35D-08 OVMax= 3.44D-05

 Cycle  15  Pass 1  IDiag  1:
 RMSU=  1.81D-07    CP:  7.67D-01  1.22D+00  9.70D-01  8.23D-01  9.30D-01
                    CP:  1.01D+00  1.04D+00  9.73D-01  1.46D+00  1.61D+00
                    CP:  2.03D+00  1.72D+00  1.32D+00  1.10D+00
 E= -1374.56999421219     Delta-E=       -0.000000001307 Rises=F Damp=F
 DIIS: error= 2.34D-07 at cycle  15 NSaved=  15.
 NSaved=15 IEnMin=15 EnMin= -1374.56999421219     IErMin=15 ErrMin= 2.34D-07
 ErrMax= 2.34D-07  0.00D+00 EMaxC= 1.00D-01 BMatC= 7.00D-11 BMatP= 3.74D-10
 IDIUse=1 WtCom= 1.00D+00 WtEn= 0.00D+00
 Coeff-Com: -0.303D-05 0.539D-05 0.252D-04 0.155D-04-0.812D-04-0.492D-03
 Coeff-Com: -0.489D-03 0.627D-03 0.843D-02 0.910D-02-0.143D-01-0.593D-01
 Coeff-Com: -0.287D-01 0.297D+00 0.788D+00
 Coeff:     -0.303D-05 0.539D-05 0.252D-04 0.155D-04-0.812D-04-0.492D-03
 Coeff:     -0.489D-03 0.627D-03 0.843D-02 0.910D-02-0.143D-01-0.593D-01
 Coeff:     -0.287D-01 0.297D+00 0.788D+00
 Gap=     0.223 Goal=   None    Shift=    0.000
 RMSDP=1.40D-07 MaxDP=5.74D-06 DE=-1.31D-09 OVMax= 1.22D-05

 Cycle  16  Pass 1  IDiag  1:
 RMSU=  8.25D-08    CP:  7.67D-01  1.22D+00  9.70D-01  8.23D-01  9.30D-01
                    CP:  1.01D+00  1.04D+00  9.74D-01  1.46D+00  1.61D+00
                    CP:  2.03D+00  1.73D+00  1.36D+00  1.16D+00  1.02D+00
 E= -1374.56999421242     Delta-E=       -0.000000000236 Rises=F Damp=F
 DIIS: error= 1.68D-07 at cycle  16 NSaved=  16.
 NSaved=16 IEnMin=16 EnMin= -1374.56999421242     IErMin=16 ErrMin= 1.68D-07
 ErrMax= 1.68D-07  0.00D+00 EMaxC= 1.00D-01 BMatC= 1.71D-11 BMatP= 7.00D-11
 IDIUse=1 WtCom= 1.00D+00 WtEn= 0.00D+00
 Coeff-Com: -0.638D-05 0.783D-05 0.174D-04 0.167D-04 0.431D-04-0.189D-03
 Coeff-Com: -0.519D-03-0.794D-03 0.165D-02 0.685D-02 0.501D-02-0.155D-01
 Coeff-Com: -0.618D-01-0.532D-01 0.341D+00 0.777D+00
 Coeff:     -0.638D-05 0.783D-05 0.174D-04 0.167D-04 0.431D-04-0.189D-03
 Coeff:     -0.519D-03-0.794D-03 0.165D-02 0.685D-02 0.501D-02-0.155D-01
 Coeff:     -0.618D-01-0.532D-01 0.341D+00 0.777D+00
 Gap=     0.223 Goal=   None    Shift=    0.000
 RMSDP=6.77D-08 MaxDP=3.37D-06 DE=-2.36D-10 OVMax= 5.76D-06

 Cycle  17  Pass 1  IDiag  1:
 RMSU=  4.00D-08    CP:  7.67D-01  1.22D+00  9.70D-01  8.23D-01  9.30D-01
                    CP:  1.01D+00  1.04D+00  9.74D-01  1.46D+00  1.61D+00
                    CP:  2.03D+00  1.74D+00  1.38D+00  1.19D+00  1.16D+00
                    CP:  1.00D+00
 E= -1374.56999421249     Delta-E=       -0.000000000064 Rises=F Damp=F
 DIIS: error= 5.74D-08 at cycle  17 NSaved=  17.
 NSaved=17 IEnMin=17 EnMin= -1374.56999421249     IErMin=17 ErrMin= 5.74D-08
 ErrMax= 5.74D-08  0.00D+00 EMaxC= 1.00D-01 BMatC= 2.20D-12 BMatP= 1.71D-11
 IDIUse=1 WtCom= 1.00D+00 WtEn= 0.00D+00
 Coeff-Com: -0.127D-05 0.134D-05-0.220D-05-0.513D-06 0.294D-04 0.748D-04
 Coeff-Com:  0.582D-05-0.333D-03-0.161D-02-0.669D-03 0.426D-02 0.116D-01
 Coeff-Com: -0.445D-02-0.806D-01-0.109D+00 0.157D+00 0.102D+01
 Coeff:     -0.127D-05 0.134D-05-0.220D-05-0.513D-06 0.294D-04 0.748D-04
 Coeff:      0.582D-05-0.333D-03-0.161D-02-0.669D-03 0.426D-02 0.116D-01
 Coeff:     -0.445D-02-0.806D-01-0.109D+00 0.157D+00 0.102D+01
 Gap=     0.223 Goal=   None    Shift=    0.000
 RMSDP=3.27D-08 MaxDP=1.88D-06 DE=-6.37D-11 OVMax= 2.90D-06

 Cycle  18  Pass 1  IDiag  1:
 RMSU=  1.70D-08    CP:  7.67D-01  1.22D+00  9.70D-01  8.23D-01  9.30D-01
                    CP:  1.01D+00  1.04D+00  9.74D-01  1.46D+00  1.61D+00
                    CP:  2.03D+00  1.74D+00  1.38D+00  1.19D+00  1.23D+00
                    CP:  1.16D+00  1.25D+00
 E= -1374.56999421251     Delta-E=       -0.000000000021 Rises=F Damp=F
 DIIS: error= 2.21D-08 at cycle  18 NSaved=  18.
 NSaved=18 IEnMin=18 EnMin= -1374.56999421251     IErMin=18 ErrMin= 2.21D-08
 ErrMax= 2.21D-08  0.00D+00 EMaxC= 1.00D-01 BMatC= 4.96D-13 BMatP= 2.20D-12
 IDIUse=1 WtCom= 1.00D+00 WtEn= 0.00D+00
 Coeff-Com:  0.316D-06-0.471D-06-0.320D-05-0.267D-05 0.617D-05 0.541D-04
 Coeff-Com:  0.697D-04-0.298D-04-0.828D-03-0.112D-02 0.934D-03 0.622D-02
 Coeff-Com:  0.632D-02-0.235D-01-0.882D-01-0.450D-01 0.413D+00 0.732D+00
 Coeff:      0.316D-06-0.471D-06-0.320D-05-0.267D-05 0.617D-05 0.541D-04
 Coeff:      0.697D-04-0.298D-04-0.828D-03-0.112D-02 0.934D-03 0.622D-02
 Coeff:      0.632D-02-0.235D-01-0.882D-01-0.450D-01 0.413D+00 0.732D+00
 Gap=     0.223 Goal=   None    Shift=    0.000
 RMSDP=8.44D-09 MaxDP=2.59D-07 DE=-2.09D-11 OVMax= 8.16D-07

 SCF Done:  E(RwB97XD) =  -1374.56999421     A.U. after   18 cycles
            NFock= 18  Conv=0.84D-08     -V/T= 2.0465
 KE= 1.313517418943D+03 PE=-6.779979737876D+03 EE= 2.301564525571D+03
 Leave Link  502 at Wed Oct 13 11:36:24 2021, MaxMem=  7918845952 cpu:            7537.8 elap:             630.6
 (Enter /gpfs/loomis/apps/avx/software/Gaussian/16-C.01_AVX/g16/l601.exe)
 Copying SCF densities to generalized density rwf, IOpCl= 0 IROHF=0.

 **********************************************************************

            Population analysis using the SCF Density.

 **********************************************************************

 Alpha  occ. eigenvalues -- -101.63961 -19.33869 -19.33250 -19.32264 -14.53648
 Alpha  occ. eigenvalues --  -14.53628 -10.43307 -10.42801 -10.42146 -10.40123
 Alpha  occ. eigenvalues --  -10.40033 -10.38315 -10.38223 -10.36188 -10.36116
 Alpha  occ. eigenvalues --  -10.36032 -10.35998 -10.35441 -10.35435  -9.51177
 Alpha  occ. eigenvalues --   -7.25585  -7.25083  -7.25072  -3.32952  -1.92226
 Alpha  occ. eigenvalues --   -1.91785  -1.91677  -1.16943  -1.16233  -1.15455
 Alpha  occ. eigenvalues --   -1.13719  -1.11126  -0.96099  -0.95315  -0.94876
 Alpha  occ. eigenvalues --   -0.89821  -0.84712  -0.81040  -0.79343  -0.77315
 Alpha  occ. eigenvalues --   -0.75470  -0.70542  -0.66267  -0.65721  -0.65035
 Alpha  occ. eigenvalues --   -0.64450  -0.64385  -0.62163  -0.61173  -0.59067
 Alpha  occ. eigenvalues --   -0.58219  -0.57646  -0.56698  -0.56592  -0.54697
 Alpha  occ. eigenvalues --   -0.52813  -0.52363  -0.51695  -0.51100  -0.50255
 Alpha  occ. eigenvalues --   -0.50173  -0.49749  -0.49126  -0.48379  -0.48234
 Alpha  occ. eigenvalues --   -0.47966  -0.45033  -0.44760  -0.43784  -0.42809
 Alpha  occ. eigenvalues --   -0.41648  -0.39624  -0.36642  -0.36257  -0.36090
 Alpha  occ. eigenvalues --   -0.30605  -0.27166  -0.26883
 Alpha virt. eigenvalues --   -0.04576  -0.01644  -0.01305   0.01590   0.02110
 Alpha virt. eigenvalues --    0.02471   0.03442   0.03578   0.04030   0.04383
 Alpha virt. eigenvalues --    0.04785   0.05214   0.05552   0.06404   0.06708
 Alpha virt. eigenvalues --    0.06778   0.07174   0.07236   0.07513   0.08898
 Alpha virt. eigenvalues --    0.09271   0.09471   0.09499   0.09838   0.10653
 Alpha virt. eigenvalues --    0.10915   0.12100   0.12289   0.12366   0.12551
 Alpha virt. eigenvalues --    0.13042   0.13291   0.13310   0.13743   0.13877
 Alpha virt. eigenvalues --    0.14426   0.14505   0.14679   0.14983   0.15266
 Alpha virt. eigenvalues --    0.16009   0.16099   0.16266   0.16576   0.16938
 Alpha virt. eigenvalues --    0.17282   0.17945   0.18370   0.18421   0.18718
 Alpha virt. eigenvalues --    0.19142   0.19444   0.19585   0.19954   0.20219
 Alpha virt. eigenvalues --    0.20441   0.21077   0.21824   0.22196   0.22483
 Alpha virt. eigenvalues --    0.22848   0.23039   0.23600   0.23948   0.24323
 Alpha virt. eigenvalues --    0.24647   0.24901   0.25238   0.25995   0.26186
 Alpha virt. eigenvalues --    0.26532   0.26827   0.27737   0.27837   0.28351
 Alpha virt. eigenvalues --    0.28480   0.29379   0.29413   0.29782   0.29836
 Alpha virt. eigenvalues --    0.30199   0.30529   0.30815   0.31051   0.31402
 Alpha virt. eigenvalues --    0.31474   0.31992   0.32195   0.32476   0.32928
 Alpha virt. eigenvalues --    0.33044   0.33603   0.33711   0.34302   0.35046
 Alpha virt. eigenvalues --    0.35134   0.35496   0.35744   0.35990   0.36371
 Alpha virt. eigenvalues --    0.36709   0.36832   0.37147   0.37404   0.37650
 Alpha virt. eigenvalues --    0.38121   0.38358   0.38811   0.39249   0.39444
 Alpha virt. eigenvalues --    0.39748   0.39930   0.40521   0.41019   0.41356
 Alpha virt. eigenvalues --    0.41560   0.41636   0.42232   0.43507   0.44281
 Alpha virt. eigenvalues --    0.44859   0.45237   0.45878   0.46131   0.46612
 Alpha virt. eigenvalues --    0.46897   0.47492   0.48355   0.48869   0.49466
 Alpha virt. eigenvalues --    0.49695   0.50323   0.50669   0.50870   0.51408
 Alpha virt. eigenvalues --    0.51495   0.51611   0.51830   0.52732   0.53012
 Alpha virt. eigenvalues --    0.53521   0.54417   0.54573   0.54892   0.54990
 Alpha virt. eigenvalues --    0.56480   0.56839   0.57123   0.57330   0.57613
 Alpha virt. eigenvalues --    0.57981   0.58064   0.59127   0.59473   0.60035
 Alpha virt. eigenvalues --    0.60101   0.60973   0.61701   0.61860   0.62206
 Alpha virt. eigenvalues --    0.62656   0.63133   0.63207   0.63711   0.64409
 Alpha virt. eigenvalues --    0.64642   0.64909   0.65082   0.65914   0.66341
 Alpha virt. eigenvalues --    0.66424   0.67444   0.67697   0.68233   0.68317
 Alpha virt. eigenvalues --    0.68976   0.69069   0.69955   0.70463   0.71031
 Alpha virt. eigenvalues --    0.71161   0.71968   0.72552   0.72723   0.73430
 Alpha virt. eigenvalues --    0.73654   0.73945   0.74434   0.74925   0.75373
 Alpha virt. eigenvalues --    0.76175   0.76335   0.76581   0.77132   0.77846
 Alpha virt. eigenvalues --    0.78061   0.78486   0.79060   0.79339   0.79612
 Alpha virt. eigenvalues --    0.80296   0.80845   0.81378   0.82264   0.82923
 Alpha virt. eigenvalues --    0.83153   0.83745   0.83949   0.85184   0.85416
 Alpha virt. eigenvalues --    0.85829   0.86194   0.86537   0.87518   0.87642
 Alpha virt. eigenvalues --    0.89182   0.89357   0.90094   0.91363   0.91674
 Alpha virt. eigenvalues --    0.92280   0.92569   0.94600   0.94873   0.95680
 Alpha virt. eigenvalues --    0.96131   0.96827   0.97548   0.98743   0.99710
 Alpha virt. eigenvalues --    1.00117   1.00598   1.01285   1.02658   1.03142
 Alpha virt. eigenvalues --    1.05442   1.06084   1.07098   1.07501   1.08283
 Alpha virt. eigenvalues --    1.08685   1.08863   1.09221   1.10113   1.10898
 Alpha virt. eigenvalues --    1.10979   1.11467   1.12597   1.13293   1.13907
 Alpha virt. eigenvalues --    1.15373   1.16092   1.16723   1.17851   1.18187
 Alpha virt. eigenvalues --    1.18533   1.19706   1.20372   1.20796   1.21336
 Alpha virt. eigenvalues --    1.22352   1.23179   1.24239   1.24565   1.25318
 Alpha virt. eigenvalues --    1.25944   1.27189   1.27817   1.28192   1.29474
 Alpha virt. eigenvalues --    1.29733   1.30699   1.32776   1.33300   1.33454
 Alpha virt. eigenvalues --    1.34279   1.35061   1.35503   1.36102   1.37065
 Alpha virt. eigenvalues --    1.37381   1.39444   1.40193   1.41266   1.41613
 Alpha virt. eigenvalues --    1.42380   1.42928   1.43073   1.43476   1.44347
 Alpha virt. eigenvalues --    1.44998   1.46100   1.46803   1.47946   1.49189
 Alpha virt. eigenvalues --    1.49799   1.50122   1.50457   1.50748   1.52355
 Alpha virt. eigenvalues --    1.53666   1.53755   1.54319   1.55518   1.56245
 Alpha virt. eigenvalues --    1.56639   1.57507   1.58185   1.59534   1.59831
 Alpha virt. eigenvalues --    1.59869   1.60180   1.60572   1.61317   1.62830
 Alpha virt. eigenvalues --    1.63106   1.64702   1.65283   1.65541   1.66720
 Alpha virt. eigenvalues --    1.67835   1.68077   1.69334   1.69672   1.70118
 Alpha virt. eigenvalues --    1.70508   1.70596   1.71301   1.72121   1.72824
 Alpha virt. eigenvalues --    1.73351   1.73796   1.74453   1.75451   1.75746
 Alpha virt. eigenvalues --    1.76802   1.78179   1.78624   1.79403   1.80500
 Alpha virt. eigenvalues --    1.80978   1.81259   1.81413   1.82743   1.84588
 Alpha virt. eigenvalues --    1.85624   1.86708   1.86768   1.87360   1.88309
 Alpha virt. eigenvalues --    1.89315   1.90217   1.91506   1.91798   1.93605
 Alpha virt. eigenvalues --    1.94684   1.95811   1.96607   1.97063   1.97522
 Alpha virt. eigenvalues --    1.97961   1.99844   2.00517   2.01947   2.03184
 Alpha virt. eigenvalues --    2.03655   2.05018   2.05214   2.06931   2.07851
 Alpha virt. eigenvalues --    2.08361   2.10057   2.11615   2.12656   2.13491
 Alpha virt. eigenvalues --    2.14155   2.14730   2.15307   2.16404   2.17126
 Alpha virt. eigenvalues --    2.18212   2.18814   2.21862   2.22317   2.24228
 Alpha virt. eigenvalues --    2.27567   2.29186   2.30292   2.32835   2.33596
 Alpha virt. eigenvalues --    2.34819   2.38519   2.39099   2.40587   2.42735
 Alpha virt. eigenvalues --    2.45574   2.46046   2.47950   2.53396   2.56193
 Alpha virt. eigenvalues --    2.57564   2.59553   2.60671   2.63990   2.64908
 Alpha virt. eigenvalues --    2.65725   2.66431   2.67793   2.71417   2.72551
 Alpha virt. eigenvalues --    2.74821   2.76839   2.78175   2.81652   2.83107
 Alpha virt. eigenvalues --    2.85158   2.87633   2.88182   2.91133   2.93270
 Alpha virt. eigenvalues --    2.95732   2.96600   3.00002   3.01838   3.02536
 Alpha virt. eigenvalues --    3.04235   3.09213   3.10080   3.17911   3.26431
 Alpha virt. eigenvalues --    3.29974   3.32632   3.35966   3.36682   3.39229
 Alpha virt. eigenvalues --    3.40069   3.40963   3.42236   3.42761   3.45149
 Alpha virt. eigenvalues --    3.47564   3.48389   3.49116   3.50525   3.50739
 Alpha virt. eigenvalues --    3.51451   3.52378   3.58857   3.65235   3.72504
 Alpha virt. eigenvalues --    3.73675   3.79020   3.88185   4.23712   4.73832
 Alpha virt. eigenvalues --   44.89704
          Condensed to atoms (all electrons):
               1          2          3          4          5          6
     1  H    3.281193  -0.317380  -2.348134  -0.054136   0.574617   0.056513
     2  H   -0.317380   3.270831  -0.050551  -2.345868   0.056320   0.554735
     3  C   -2.348134  -0.050551  20.044393   0.992542  -4.286908  -1.528283
     4  C   -0.054136  -2.345868   0.992542  20.288219  -1.445325  -4.386112
     5  C    0.574617   0.056320  -4.286908  -1.445325  16.562074  -0.105544
     6  C    0.056513   0.554735  -1.528283  -4.386112  -0.105544  16.669957
     7  C    0.071550   0.683774  -2.974094  -4.911486  -4.349285   1.327346
     8  C    0.681345   0.102505  -4.706757  -2.941270   1.294096  -4.318534
     9  C   -0.403263   0.004685   1.810847   0.936840  -4.478704  -0.125927
    10  C    0.002894  -0.403493   0.992435   1.958568  -0.117111  -4.460697
    11  H   -0.002508  -0.005662  -0.043041   0.001127   0.589208  -0.004212
    12  H   -0.005812  -0.000998   0.001156  -0.061935  -0.004122   0.575056
    13  N    0.266281  -0.081497  -0.763622   0.139556   0.545640  -0.283304
    14  N   -0.078185   0.268388   0.081835  -0.771756  -0.233942   0.389483
    15  C    0.282713  -0.021576  -2.106723  -1.010457   2.357885   0.136043
    16  C   -0.020109   0.287110  -1.105630  -2.238013   0.127940   2.626312
    17  H   -0.013891   0.008712  -0.111249   0.052499   0.186946   0.006099
    18  H    0.009145  -0.014897   0.055046  -0.096243   0.008063   0.130840
    19  Re   0.025300   0.005781   0.031063  -0.232465   0.342503   0.381564
    20  C   -0.004065   0.001740  -0.032686   0.003712  -0.082580  -0.102835
    21  Cl  -0.000407  -0.000926  -0.021360  -0.029642  -0.007818  -0.003472
    22  O    0.000236  -0.000114   0.002875  -0.000354   0.005440   0.005591
    23  C   -0.004356   0.003787  -0.047372  -0.014303  -0.020192  -0.002047
    24  C    0.000864  -0.002662  -0.052531  -0.020218  -0.000859  -0.026184
    25  O    0.000092  -0.000059   0.001832   0.002436   0.000479   0.001025
    26  H    0.017829  -0.205186   0.068028   0.695221   0.012763  -1.772432
    27  O    0.000069   0.000014   0.005041   0.000774   0.003197   0.000567
    28  H   -0.204359   0.017127   0.685992   0.065967  -1.785660   0.012915
               7          8          9         10         11         12
     1  H    0.071550   0.681345  -0.403263   0.002894  -0.002508  -0.005812
     2  H    0.683774   0.102505   0.004685  -0.403493  -0.005662  -0.000998
     3  C   -2.974094  -4.706757   1.810847   0.992435  -0.043041   0.001156
     4  C   -4.911486  -2.941270   0.936840   1.958568   0.001127  -0.061935
     5  C   -4.349285   1.294096  -4.478704  -0.117111   0.589208  -0.004122
     6  C    1.327346  -4.318534  -0.125927  -4.460697  -0.004212   0.575056
     7  C   22.043862  -3.232003   0.962030  -0.750743  -0.153040   0.003843
     8  C   -3.232003  21.799769  -0.734504   0.746591   0.011085  -0.126208
     9  C    0.962030  -0.734504  14.460973   0.094806  -1.497184   0.003461
    10  C   -0.750743   0.746591   0.094806  14.367253   0.003453  -1.507798
    11  H   -0.153040   0.011085  -1.497184   0.003453   2.369100   0.000053
    12  H    0.003843  -0.126208   0.003461  -1.507798   0.000053   2.380173
    13  N   -0.195587   0.567614  -0.837455   0.124752   0.031395   0.002031
    14  N    0.447474   0.104909   0.087076  -0.627441   0.001485   0.007537
    15  C   -3.265312   0.198680  -5.472891  -0.169149   0.697214  -0.002240
    16  C    0.226235  -3.297738  -0.178027  -5.916068  -0.002861   0.763612
    17  H   -0.241376   0.158798   0.204887  -0.005299  -0.230476   0.000425
    18  H    0.161045  -0.189927  -0.007187   0.444208   0.000310  -0.254863
    19  Re  -0.627337  -1.013362  -0.160225  -0.076527   0.010458  -0.000014
    20  C    0.082504   0.173980   0.018876   0.038541   0.000700   0.001665
    21  Cl   0.035575  -0.025359   0.020215   0.009981   0.000997   0.000042
    22  O    0.003616  -0.009422  -0.009575  -0.008436  -0.000252  -0.000336
    23  C   -0.046302   0.189589   0.014479  -0.293547   0.000022   0.018421
    24  C    0.173078   0.014883  -0.295249   0.000394   0.016466   0.000343
    25  O    0.004584  -0.022039  -0.000966   0.034832  -0.000004   0.000445
    26  H   -0.177911   0.465124  -0.006709   0.761229  -0.000002  -0.142229
    27  O   -0.029081  -0.001904   0.038083  -0.000292   0.001128   0.000006
    28  H    0.488006  -0.180881   0.790240  -0.006545  -0.141066  -0.000012
              13         14         15         16         17         18
     1  H    0.266281  -0.078185   0.282713  -0.020109  -0.013891   0.009145
     2  H   -0.081497   0.268388  -0.021576   0.287110   0.008712  -0.014897
     3  C   -0.763622   0.081835  -2.106723  -1.105630  -0.111249   0.055046
     4  C    0.139556  -0.771756  -1.010457  -2.238013   0.052499  -0.096243
     5  C    0.545640  -0.233942   2.357885   0.127940   0.186946   0.008063
     6  C   -0.283304   0.389483   0.136043   2.626312   0.006099   0.130840
     7  C   -0.195587   0.447474  -3.265312   0.226235  -0.241376   0.161045
     8  C    0.567614   0.104909   0.198680  -3.297738   0.158798  -0.189927
     9  C   -0.837455   0.087076  -5.472891  -0.178027   0.204887  -0.007187
    10  C    0.124752  -0.627441  -0.169149  -5.916068  -0.005299   0.444208
    11  H    0.031395   0.001485   0.697214  -0.002861  -0.230476   0.000310
    12  H    0.002031   0.007537  -0.002240   0.763612   0.000425  -0.254863
    13  N    9.012676   0.059377   0.343120  -0.589877  -0.203122  -0.023452
    14  N    0.059377   8.982284  -0.452368   0.033572  -0.019175  -0.192441
    15  C    0.343120  -0.452368  14.988400   0.203599  -1.021924  -0.033801
    16  C   -0.589877   0.033572   0.203599  15.758491  -0.033819  -1.235835
    17  H   -0.203122  -0.019175  -1.021924  -0.033819   3.345534  -0.002654
    18  H   -0.023452  -0.192441  -0.033801  -1.235835  -0.002654   3.308435
    19  Re  -1.347916  -1.229108   0.569418   0.751874  -0.083908  -0.028720
    20  C    0.567815   0.461461  -0.348244  -0.396773  -0.005703  -0.019818
    21  Cl  -0.220837  -0.247836   0.081992   0.147080  -0.002344   0.009285
    22  O   -0.058567  -0.051770   0.042314   0.050652  -0.003901   0.000016
    23  C    0.082567   0.124614   0.009881   0.036912   0.003914  -0.191089
    24  C    0.088590   0.072937  -0.013578  -0.002513  -0.179566  -0.002534
    25  O   -0.005594  -0.024098  -0.002033   0.019337  -0.000388   0.025608
    26  H    0.002032  -0.103799   0.003307  -0.287328  -0.000451  -0.004657
    27  O   -0.023310  -0.005347   0.026809   0.000308   0.029803  -0.000396
    28  H   -0.114547   0.002905  -0.300220   0.003516  -0.006267  -0.000351
              19         20         21         22         23         24
     1  H    0.025300  -0.004065  -0.000407   0.000236  -0.004356   0.000864
     2  H    0.005781   0.001740  -0.000926  -0.000114   0.003787  -0.002662
     3  C    0.031063  -0.032686  -0.021360   0.002875  -0.047372  -0.052531
     4  C   -0.232465   0.003712  -0.029642  -0.000354  -0.014303  -0.020218
     5  C    0.342503  -0.082580  -0.007818   0.005440  -0.020192  -0.000859
     6  C    0.381564  -0.102835  -0.003472   0.005591  -0.002047  -0.026184
     7  C   -0.627337   0.082504   0.035575   0.003616  -0.046302   0.173078
     8  C   -1.013362   0.173980  -0.025359  -0.009422   0.189589   0.014883
     9  C   -0.160225   0.018876   0.020215  -0.009575   0.014479  -0.295249
    10  C   -0.076527   0.038541   0.009981  -0.008436  -0.293547   0.000394
    11  H    0.010458   0.000700   0.000997  -0.000252   0.000022   0.016466
    12  H   -0.000014   0.001665   0.000042  -0.000336   0.018421   0.000343
    13  N   -1.347916   0.567815  -0.220837  -0.058567   0.082567   0.088590
    14  N   -1.229108   0.461461  -0.247836  -0.051770   0.124614   0.072937
    15  C    0.569418  -0.348244   0.081992   0.042314   0.009881  -0.013578
    16  C    0.751874  -0.396773   0.147080   0.050652   0.036912  -0.002513
    17  H   -0.083908  -0.005703  -0.002344  -0.003901   0.003914  -0.179566
    18  H   -0.028720  -0.019818   0.009285   0.000016  -0.191089  -0.002534
    19  Re  17.500167  -1.224645   0.505541   0.077081  -0.132487  -0.175902
    20  C   -1.224645   6.926410  -0.100213   0.032654   0.001362   0.025249
    21  Cl   0.505541  -0.100213  17.492631   0.001624  -0.112432  -0.148363
    22  O    0.077081   0.032654   0.001624   8.357244   0.005906   0.005015
    23  C   -0.132487   0.001362  -0.112432   0.005906   5.967479  -0.088275
    24  C   -0.175902   0.025249  -0.148363   0.005015  -0.088275   6.163582
    25  O   -0.049715   0.008562   0.005180  -0.003648   0.119356   0.018877
    26  H   -0.028655  -0.000665   0.000780   0.000199   0.000644   0.000039
    27  O   -0.030464   0.009304   0.009165  -0.002886   0.012910   0.092441
    28  H   -0.031959   0.000738   0.000574   0.000167   0.000341   0.001713
              25         26         27         28
     1  H    0.000092   0.017829   0.000069  -0.204359
     2  H   -0.000059  -0.205186   0.000014   0.017127
     3  C    0.001832   0.068028   0.005041   0.685992
     4  C    0.002436   0.695221   0.000774   0.065967
     5  C    0.000479   0.012763   0.003197  -1.785660
     6  C    0.001025  -1.772432   0.000567   0.012915
     7  C    0.004584  -0.177911  -0.029081   0.488006
     8  C   -0.022039   0.465124  -0.001904  -0.180881
     9  C   -0.000966  -0.006709   0.038083   0.790240
    10  C    0.034832   0.761229  -0.000292  -0.006545
    11  H   -0.000004  -0.000002   0.001128  -0.141066
    12  H    0.000445  -0.142229   0.000006  -0.000012
    13  N   -0.005594   0.002032  -0.023310  -0.114547
    14  N   -0.024098  -0.103799  -0.005347   0.002905
    15  C   -0.002033   0.003307   0.026809  -0.300220
    16  C    0.019337  -0.287328   0.000308   0.003516
    17  H   -0.000388  -0.000451   0.029803  -0.006267
    18  H    0.025608  -0.004657  -0.000396  -0.000351
    19  Re  -0.049715  -0.028655  -0.030464  -0.031959
    20  C    0.008562  -0.000665   0.009304   0.000738
    21  Cl   0.005180   0.000780   0.009165   0.000574
    22  O   -0.003648   0.000199  -0.002886   0.000167
    23  C    0.119356   0.000644   0.012910   0.000341
    24  C    0.018877   0.000039   0.092441   0.001713
    25  O    8.289940  -0.000042  -0.002056   0.000004
    26  H   -0.000042   2.390990   0.000010  -0.000311
    27  O   -0.002056   0.000010   8.288051  -0.000053
    28  H    0.000004  -0.000311  -0.000053   2.391933
 Mulliken charges:
               1
     1  H   -0.814036
     2  H   -0.814641
     3  C    1.405855
     4  C    1.422121
     5  C    0.250881
     6  C    0.245537
     7  C    0.239033
     8  C    0.290939
     9  C    0.760368
    10  C    0.763210
    11  H   -0.653893
    12  H   -0.651702
    13  N   -0.084759
    14  N   -0.088072
    15  C    0.279141
    16  C    0.268044
    17  H   -0.832102
    18  H   -0.853137
    19  Re   1.272662
    20  C   -0.037048
    21  Cl  -0.399653
    22  O   -0.441370
    23  C    0.360219
    24  C    0.333967
    25  O   -0.421950
    26  H   -0.687817
    27  O   -0.421892
    28  H   -0.689906
 Sum of Mulliken charges =  -0.00000
[...]
 Alpha virt. eigenvalues --    0.79259   0.79416   0.80407   0.80523   0.81339
 Alpha virt. eigenvalues --    0.81491   0.82068   0.82342   0.83233   0.83335
 Alpha virt. eigenvalues --    0.84157   0.84429   0.85152   0.85336   0.85516
 Alpha virt. eigenvalues --    0.85861   0.86816   0.86824   0.87197   0.87921
 Alpha virt. eigenvalues --    0.89231   0.89775   0.90500   0.91603   0.91915
 Alpha virt. eigenvalues --    0.92456   0.93810   0.94278   0.94549   0.95478
 Alpha virt. eigenvalues --    0.95765   0.95978   0.97912   0.98753   0.99043
 Alpha virt. eigenvalues --    1.00025   1.00583   1.00841   1.03126   1.04719
 Alpha virt. eigenvalues --    1.06072   1.06081   1.06825   1.07525   1.08555
 Alpha virt. eigenvalues --    1.08925   1.09474   1.10059   1.11208   1.11688
 Alpha virt. eigenvalues --    1.12099   1.12226   1.12351   1.14304   1.14602
 Alpha virt. eigenvalues --    1.14933   1.15767   1.16820   1.17007   1.18000
 Alpha virt. eigenvalues --    1.19307   1.19949   1.20022   1.20329   1.21091
 Alpha virt. eigenvalues --    1.22230   1.23478   1.24301   1.25605   1.26217
 Alpha virt. eigenvalues --    1.26638   1.27339   1.28109   1.28597   1.30917
 Alpha virt. eigenvalues --    1.31298   1.32592   1.33141   1.34059   1.34099
 Alpha virt. eigenvalues --    1.34584   1.35139   1.36252   1.37324   1.37538
 Alpha virt. eigenvalues --    1.38204   1.40275   1.40328   1.41489   1.41837
 Alpha virt. eigenvalues --    1.42393   1.42452   1.43600   1.44940   1.45229
 Alpha virt. eigenvalues --    1.45241   1.46069   1.47222   1.48056   1.48908
 Alpha virt. eigenvalues --    1.49510   1.50792   1.51221   1.51319   1.51816
 Alpha virt. eigenvalues --    1.53241   1.53935   1.54920   1.55760   1.56008
 Alpha virt. eigenvalues --    1.56813   1.57053   1.58525   1.58737   1.58854
 Alpha virt. eigenvalues --    1.59843   1.61223   1.61528   1.61733   1.62531
 Alpha virt. eigenvalues --    1.63136   1.64630   1.65590   1.65900   1.67056
 Alpha virt. eigenvalues --    1.67536   1.68069   1.69017   1.70312   1.70596
 Alpha virt. eigenvalues --    1.71125   1.71174   1.72036   1.73400   1.73735
 Alpha virt. eigenvalues --    1.74399   1.74468   1.75286   1.76155   1.76602
 Alpha virt. eigenvalues --    1.77801   1.79437   1.80244   1.80856   1.81147
 Alpha virt. eigenvalues --    1.81760   1.81908   1.82567   1.85485   1.86138
 Alpha virt. eigenvalues --    1.88032   1.88138   1.88629   1.88817   1.89839
 Alpha virt. eigenvalues --    1.90110   1.91359   1.92204   1.92522   1.93525
 Alpha virt. eigenvalues --    1.94325   1.94548   1.96753   1.97321   1.97763
 Alpha virt. eigenvalues --    1.98928   1.99473   2.00104   2.02262   2.02570
 Alpha virt. eigenvalues --    2.02791   2.03401   2.07456   2.08456   2.08815
 Alpha virt. eigenvalues --    2.09611   2.11355   2.11754   2.13193   2.13258
 Alpha virt. eigenvalues --    2.13631   2.14697   2.16060   2.16102   2.16639
 Alpha virt. eigenvalues --    2.18843   2.21452   2.23044   2.23152   2.24430
 Alpha virt. eigenvalues --    2.27682   2.29482   2.30509   2.32011   2.34361
 Alpha virt. eigenvalues --    2.38451   2.40139   2.40838   2.41412   2.43671
 Alpha virt. eigenvalues --    2.44325   2.48631   2.51456   2.54681   2.56373
 Alpha virt. eigenvalues --    2.57672   2.58245   2.60423   2.63876   2.65113
 Alpha virt. eigenvalues --    2.65547   2.66337   2.66894   2.70017   2.71971
 Alpha virt. eigenvalues --    2.73347   2.74651   2.76859   2.78924   2.81456
 Alpha virt. eigenvalues --    2.84932   2.87303   2.88263   2.89745   2.94312
 Alpha virt. eigenvalues --    2.94521   2.94900   2.95405   3.03469   3.03865
 Alpha virt. eigenvalues --    3.06513   3.07673   3.07911   3.14178   3.28171
 Alpha virt. eigenvalues --    3.31158   3.32671   3.38578   3.39047   3.40454
 Alpha virt. eigenvalues --    3.41546   3.42430   3.42784   3.43340   3.44661
 Alpha virt. eigenvalues --    3.48059   3.49347   3.50398   3.50828   3.52620
 Alpha virt. eigenvalues --    3.54480   3.54905   3.57510   3.63900   3.85778
 Alpha virt. eigenvalues --    3.88222   3.88261   3.89606   4.28550   4.68645
 Alpha virt. eigenvalues --   45.39763
          Condensed to atoms (all electrons):
               1          2          3          4          5          6
     1  H    3.419037  -0.451976  -2.147005  -0.113468   0.500482   0.066680
     2  H   -0.451976   3.419125  -0.113499  -2.147339   0.066707   0.499754
     3  C   -2.147005  -0.113499  18.811073   1.739635  -4.770916  -1.479848
     4  C   -0.113468  -2.147339   1.739635  18.806997  -1.479658  -4.768329
     5  C    0.500482   0.066707  -4.770916  -1.479658  16.410838  -0.072778
     6  C    0.066680   0.499754  -1.479848  -4.768329  -0.072778  16.409537
     7  C   -0.125903   0.824067  -2.885999  -3.956036  -4.069307   1.399269
     8  C    0.824045  -0.124849  -3.956501  -2.885975   1.399363  -4.069919
     9  C   -0.381157  -0.007740   1.783741   1.048732  -4.294871  -0.132492
    10  C   -0.007696  -0.381266   1.049264   1.783586  -0.132528  -4.295917
    11  H   -0.001842  -0.006195  -0.023747   0.005746   0.510080  -0.004868
    12  H   -0.006198  -0.001838   0.005751  -0.023759  -0.004867   0.510079
    13  N    0.201071  -0.049356  -0.607679  -0.018361   0.658721  -0.257299
    14  N   -0.049427   0.201173  -0.018649  -0.607614  -0.257520   0.659121
    15  C    0.234599  -0.000174  -2.237923  -1.180891   2.623011   0.082206
    16  C   -0.000184   0.234659  -1.181507  -2.237450   0.082253   2.623109
    17  H   -0.017860   0.010083  -0.109253   0.045730   0.130555   0.008417
    18  H    0.010091  -0.017870   0.045738  -0.109272   0.008407   0.130704
    19  Re   0.025299   0.025325  -0.007418  -0.007445   0.181074   0.181048
    20  C   -0.003337  -0.003343  -0.030338  -0.030310  -0.035325  -0.035271
    21  Cl  -0.000684  -0.000685   0.002803   0.002856  -0.002427  -0.002414
    22  O    0.000046   0.000046  -0.002305  -0.002297   0.003135   0.003135
    23  C   -0.005645   0.003642  -0.041802  -0.013226  -0.012428   0.018926
    24  C    0.003642  -0.005643  -0.013321  -0.041837   0.018951  -0.012385
    25  O    0.000037  -0.000023  -0.000154   0.002020   0.000691  -0.000496
    26  H    0.023004  -0.206404   0.063515   0.625144   0.013754  -1.519880
    27  O   -0.000023   0.000037   0.002023  -0.000147  -0.000511   0.000690
    28  H   -0.206242   0.023000   0.625130   0.063534  -1.519860   0.013766
               7          8          9         10         11         12
     1  H   -0.125903   0.824045  -0.381157  -0.007696  -0.001842  -0.006198
     2  H    0.824067  -0.124849  -0.007740  -0.381266  -0.006195  -0.001838
     3  C   -2.885999  -3.956501   1.783741   1.049264  -0.023747   0.005751
     4  C   -3.956036  -2.885975   1.048732   1.783586   0.005746  -0.023759
     5  C   -4.069307   1.399363  -4.294871  -0.132528   0.510080  -0.004867
     6  C    1.399269  -4.069919  -0.132492  -4.295917  -0.004868   0.510079
     7  C   20.925870  -3.360713   1.168948  -0.885485  -0.107084   0.014211
     8  C   -3.360713  20.928700  -0.885678   1.169957   0.014223  -0.106993
     9  C    1.168948  -0.885678  13.822276   0.099448  -1.233957   0.003954
    10  C   -0.885485   1.169957   0.099448  13.826129   0.003956  -1.234333
    11  H   -0.107084   0.014223  -1.233957   0.003956   2.236013   0.000108
    12  H    0.014211  -0.106993   0.003954  -1.234333   0.000108   2.236166
    13  N    0.027593   0.304219  -0.775993   0.121413   0.024205   0.002947
    14  N    0.304030   0.027300   0.121517  -0.776563   0.002940   0.024254
    15  C   -3.542988   0.210823  -5.711564  -0.134013   0.527861  -0.002247
    16  C    0.211066  -3.544334  -0.134029  -5.714503  -0.002252   0.528087
    17  H   -0.238022   0.114788   0.169152  -0.006275  -0.247639   0.000092
    18  H    0.114866  -0.238526  -0.006264   0.168870   0.000092  -0.247771
    19  Re  -0.499438  -0.499678   0.057340   0.057310   0.001540   0.001547
    20  C    0.078485   0.078359  -0.005407  -0.005516   0.000059   0.000060
    21  Cl  -0.041465  -0.041380  -0.007311  -0.007311  -0.000654  -0.000651
    22  O   -0.001187  -0.001175  -0.012043  -0.012054  -0.000392  -0.000393
    23  C   -0.056072   0.186987  -0.002059  -0.208307  -0.000278   0.012883
    24  C    0.186838  -0.056188  -0.208094  -0.002070   0.012857  -0.000279
    25  O   -0.002990  -0.017016  -0.000753   0.011755  -0.000057  -0.000358
    26  H   -0.179688   0.413906  -0.008090   0.683760  -0.000086  -0.118490
    27  O   -0.016970  -0.002976   0.011780  -0.000755  -0.000355  -0.000057
    28  H    0.414038  -0.179689   0.683523  -0.008095  -0.118500  -0.000086
              13         14         15         16         17         18
     1  H    0.201071  -0.049427   0.234599  -0.000184  -0.017860   0.010091
     2  H   -0.049356   0.201173  -0.000174   0.234659   0.010083  -0.017870
     3  C   -0.607679  -0.018649  -2.237923  -1.181507  -0.109253   0.045738
     4  C   -0.018361  -0.607614  -1.180891  -2.237450   0.045730  -0.109272
     5  C    0.658721  -0.257520   2.623011   0.082253   0.130555   0.008407
     6  C   -0.257299   0.659121   0.082206   2.623109   0.008417   0.130704
     7  C    0.027593   0.304030  -3.542988   0.211066  -0.238022   0.114866
     8  C    0.304219   0.027300   0.210823  -3.544334   0.114788  -0.238526
     9  C   -0.775993   0.121517  -5.711564  -0.134029   0.169152  -0.006264
    10  C    0.121413  -0.776563  -0.134013  -5.714503  -0.006275   0.168870
    11  H    0.024205   0.002940   0.527861  -0.002252  -0.247639   0.000092
    12  H    0.002947   0.024254  -0.002247   0.528087   0.000092  -0.247771
    13  N    8.345828  -0.214760   0.338565  -0.575230  -0.199267  -0.035824
    14  N   -0.214760   8.346259  -0.575415   0.338994  -0.035796  -0.199285
    15  C    0.338565  -0.575415  15.997371   0.044247  -0.834988  -0.037828
    16  C   -0.575230   0.338994   0.044247  15.999953  -0.037801  -0.835076
    17  H   -0.199267  -0.035796  -0.834988  -0.037801   3.193289  -0.001370
    18  H   -0.035824  -0.199285  -0.037828  -0.835076  -0.001370   3.194493
    19  Re  -0.537565  -0.537687   0.338797   0.339185  -0.012500  -0.012600
    20  C    0.246696   0.246858  -0.139133  -0.139096  -0.015146  -0.015147
    21  Cl  -0.119812  -0.119792   0.094985   0.094977   0.013528   0.013515
    22  O   -0.009653  -0.009660   0.011518   0.011518   0.001256   0.001254
    23  C    0.092461   0.125025   0.005866  -0.061018  -0.000686  -0.114175
    24  C    0.124743   0.092391  -0.060747   0.006042  -0.114021  -0.000682
    25  O   -0.008445  -0.022608   0.003716   0.018254   0.001041   0.023947
    26  H    0.001153  -0.078044   0.004529  -0.294041  -0.000173  -0.003851
    27  O   -0.022558  -0.008437   0.018221   0.003702   0.023845   0.001043
    28  H   -0.078005   0.001152  -0.293970   0.004533  -0.003856  -0.000174
              19         20         21         22         23         24
     1  H    0.025299  -0.003337  -0.000684   0.000046  -0.005645   0.003642
     2  H    0.025325  -0.003343  -0.000685   0.000046   0.003642  -0.005643
     3  C   -0.007418  -0.030338   0.002803  -0.002305  -0.041802  -0.013321
     4  C   -0.007445  -0.030310   0.002856  -0.002297  -0.013226  -0.041837
     5  C    0.181074  -0.035325  -0.002427   0.003135  -0.012428   0.018951
     6  C    0.181048  -0.035271  -0.002414   0.003135   0.018926  -0.012385
     7  C   -0.499438   0.078485  -0.041465  -0.001187  -0.056072   0.186838
     8  C   -0.499678   0.078359  -0.041380  -0.001175   0.186987  -0.056188
     9  C    0.057340  -0.005407  -0.007311  -0.012043  -0.002059  -0.208094
    10  C    0.057310  -0.005516  -0.007311  -0.012054  -0.208307  -0.002070
    11  H    0.001540   0.000059  -0.000654  -0.000392  -0.000278   0.012857
    12  H    0.001547   0.000060  -0.000651  -0.000393   0.012883  -0.000279
    13  N   -0.537565   0.246696  -0.119812  -0.009653   0.092461   0.124743
    14  N   -0.537687   0.246858  -0.119792  -0.009660   0.125025   0.092391
    15  C    0.338797  -0.139133   0.094985   0.011518   0.005866  -0.060747
    16  C    0.339185  -0.139096   0.094977   0.011518  -0.061018   0.006042
    17  H   -0.012500  -0.015146   0.013528   0.001256  -0.000686  -0.114021
    18  H   -0.012600  -0.015147   0.013515   0.001254  -0.114175  -0.000682
    19  Re  16.014691  -0.923637   0.361192  -0.015722  -0.566623  -0.565968
    20  C   -0.923637   6.541595   0.004448   0.246318   0.032715   0.032714
    21  Cl   0.361192   0.004448  17.295348  -0.002457  -0.047331  -0.047290
    22  O   -0.015722   0.246318  -0.002457   8.160369   0.020855   0.020848
    23  C   -0.566623   0.032715  -0.047331   0.020855   6.389093   0.041928
    24  C   -0.565968   0.032714  -0.047290   0.020848   0.041928   6.388168
    25  O    0.041817   0.008471   0.002009  -0.004855   0.170372  -0.000559
    26  H   -0.013151   0.000828   0.000355   0.000063   0.000018   0.000396
    27  O    0.041691   0.008465   0.002003  -0.004857  -0.000512   0.170411
    28  H   -0.013141   0.000826   0.000355   0.000063   0.000395   0.000017
              25         26         27         28
     1  H    0.000037   0.023004  -0.000023  -0.206242
     2  H   -0.000023  -0.206404   0.000037   0.023000
     3  C   -0.000154   0.063515   0.002023   0.625130
     4  C    0.002020   0.625144  -0.000147   0.063534
     5  C    0.000691   0.013754  -0.000511  -1.519860
     6  C   -0.000496  -1.519880   0.000690   0.013766
     7  C   -0.002990  -0.179688  -0.016970   0.414038
     8  C   -0.017016   0.413906  -0.002976  -0.179689
     9  C   -0.000753  -0.008090   0.011780   0.683523
    10  C    0.011755   0.683760  -0.000755  -0.008095
    11  H   -0.000057  -0.000086  -0.000355  -0.118500
    12  H   -0.000358  -0.118490  -0.000057  -0.000086
    13  N   -0.008445   0.001153  -0.022558  -0.078005
    14  N   -0.022608  -0.078044  -0.008437   0.001152
    15  C    0.003716   0.004529   0.018221  -0.293970
    16  C    0.018254  -0.294041   0.003702   0.004533
    17  H    0.001041  -0.000173   0.023845  -0.003856
    18  H    0.023947  -0.003851   0.001043  -0.000174
    19  Re   0.041817  -0.013151   0.041691  -0.013141
    20  C    0.008471   0.000828   0.008465   0.000826
    21  Cl   0.002009   0.000355   0.002003   0.000355
    22  O   -0.004855   0.000063  -0.004857   0.000063
    23  C    0.170372   0.000018  -0.000512   0.000395
    24  C   -0.000559   0.000396   0.170411   0.000017
    25  O    8.123624  -0.000010   0.000137   0.000017
    26  H   -0.000010   2.245422   0.000017  -0.000352
    27  O    0.000137   0.000017   8.123678  -0.000011
    28  H    0.000017  -0.000352  -0.000011   2.245223
 Mulliken charges:
               1
     1  H   -0.789385
     2  H   -0.789420
     3  C    1.499188
     4  C    1.499434
     5  C    0.044975
     6  C    0.045456
     7  C    0.300067
     8  C    0.298921
     9  C    0.837092
    10  C    0.837236
    11  H   -0.591774
    12  H   -0.591820
    13  N    0.020190
    14  N    0.020244
    15  C    0.215565
    16  C    0.215943
    17  H   -0.837124
    18  H   -0.837303
    19  Re   1.544715
    20  C   -0.145892
    21  Cl  -0.446710
    22  O   -0.401374
    23  C    0.028994
    24  C    0.029138
    25  O   -0.349584
    26  H   -0.653603
    27  O   -0.349577
    28  H   -0.653591
 Sum of Mulliken charges =  -0.00000
 Mulliken charges with hydrogens summed into heavy atoms:
               1
     3  C    0.709804
     4  C    0.710013
     5  C   -0.608616
     6  C   -0.608147
     7  C    0.300067
     8  C    0.298921
     9  C    0.245318
    10  C    0.245416
    13  N    0.020190
    14  N    0.020244
    15  C   -0.621559
    16  C   -0.621361
    19  Re   1.544715
    20  C   -0.145892
    21  Cl  -0.446710
    22  O   -0.401374
    23  C    0.028994
    24  C    0.029138
    25  O   -0.349584
    27  O   -0.349577
 Electronic spatial extent (au):  <R**2>=          14429.5724
 Charge=              0.0000 electrons
 Dipole moment (field-independent basis, Debye):
    X=            -10.2018    Y=              3.6565    Z=              0.1179  Tot=             10.8379
 Quadrupole moment (field-independent basis, Debye-Ang):
   XX=           -206.5665   YY=           -163.3878   ZZ=           -108.4497
   XY=             14.8929   XZ=            -10.2446   YZ=              4.1250
 Traceless Quadrupole moment (field-independent basis, Debye-Ang):
   XX=            -47.0985   YY=             -3.9198   ZZ=             51.0183
   XY=             14.8929   XZ=            -10.2446   YZ=              4.1250
 Octapole moment (field-independent basis, Debye-Ang**2):
  XXX=          -2079.3102  YYY=             97.9587  ZZZ=           -346.7453  XYY=           -647.2456
  XXY=             90.5346  XXZ=           -218.2533  XZZ=           -508.7585  YZZ=             35.4917
  YYZ=           -175.1988  XYZ=             16.5248
 Hexadecapole moment (field-independent basis, Debye-Ang**3):
 XXXX=         -19173.6167 YYYY=          -1284.5958 ZZZZ=          -3095.5908 XXXY=            673.2391
 XXXZ=          -2212.9524 YYYX=            417.2325 YYYZ=            101.3077 ZZZX=          -1597.7232
 ZZZY=            102.0109 XXYY=          -3364.3972 XXZZ=          -3425.8724 YYZZ=           -894.0195
 XXYZ=             97.6642 YYXZ=           -692.6602 ZZXY=            177.1242
 N-N= 1.779232594370D+03 E-N=-6.759301927065D+03  KE= 1.314541612542D+03
 No NMR shielding tensors so no spin-rotation constants.
 Leave Link  601 at Wed Oct 13 13:45:42 2021, MaxMem=  7918845952 cpu:               3.4 elap:               0.4
 (Enter /gpfs/loomis/apps/avx/software/Gaussian/16-C.01_AVX/g16/l9999.exe)
 Unable to Open any file for archive entry.
 1\1\GINC-P08R01N03\FOpt\RwB97XD\GenECP\C13H8Cl1N2O3Re1\PEV4\13-Oct-202
 1\0\\#p opt wb97xd/genecp nosymm geom=connectivity\\Optimization of Re
 bpy on S0 state\\0,1\H,-0.0236993516,0.0492252065,0.1025090702\H,0.002
 7253315,0.0570987604,2.1432710702\C,0.943798926,0.0296884461,-0.390950
 318\C,0.9827976227,0.0413004196,2.6113767377\C,1.0119281215,0.02056889
 81,-1.7778617116\C,1.0870779608,0.0429448786,3.9960847014\C,2.12192282
 29,0.0062987957,0.3536544973\C,2.1411561101,0.0120635016,1.8365615041\
 C,2.26114822,-0.0097723957,-2.3874884995\C,2.3517665977,0.0173250799,4
 .573103355\H,2.3698351062,-0.022504869,-3.4697011767\H,2.4886229391,0.
 0130369448,5.6521778056\N,3.3285757656,-0.0203353028,-0.2459965937\N,3
 .3630063371,-0.0099540981,2.4046918728\C,3.3910046444,-0.0306703161,-1
 .5828812778\C,3.4602808838,-0.0098413728,3.7395131964\H,4.3873389662,-
 0.0628027643,-2.0166638601\H,4.4675510462,-0.0385716531,4.1474923992\R
 e,5.0974724158,-0.1995431613,1.0574272626\C,5.4663581689,1.6676471951,
 1.045446209\Cl,4.3974955862,-2.5996465216,1.0757550914\O,5.6871863501,
 2.8066413867,1.0380994346\C,6.4643897186,-0.458982704,2.3782374338\C,6
 .4303133514,-0.4695930287,-0.2957301252\O,7.2667175193,-0.6038807154,3
 .1962171759\H,0.1911685535,0.0611308733,4.6148958536\O,7.2117849329,-0
 .6211397765,-1.1324818429\H,0.1002247932,0.0340927129,-2.3732819351\\V
 ersion=ES64L-G16RevC.01\HF=-1374.6950185\RMSD=9.006e-09\RMSF=9.572e-06
 \Dipole=-4.0136837,1.4385925,0.0463797\Quadrupole=-35.0165833,-2.91425
 44,37.9308376,11.0725054,-7.6166009,3.066845\PG=C01 [X(C13H8Cl1N2O3Re1
 )]\\@
 The archive entry for this job was punched.


 WE SHOULD BE CAREFUL TO GET OUT OF AN EXPERIENCE ONLY THE WISDOM
 THAT IS IN IT -- AND STOP THERE;
 LEST WE BE LIKE THE CAT THAT SITS DOWN ON A HOT STOVE-LID.
 SHE WILL NEVER SIT DOWN ON A HOT STOVE LID AGAIN;
 BUT ALSO SHE WILL NEVER SIT DOWN ON A COLD ONE ANY MORE.

                                                     -- MARK TWAIN
 Job cpu time:       1 days  3 hours 37 minutes 30.9 seconds.
 Elapsed time:       0 days  2 hours 19 minutes 52.4 seconds.
 File lengths (MBytes):  RWF=    232 Int=      0 D2E=      0 Chk=     28 Scr=      8
 Normal termination of Gaussian 16 at Wed Oct 13 13:45:42 2021.
