 Entering Gaussian System, Link 0=g16
 Initial command:
 /gpfs/loomis/apps/avx/software/Gaussian/16-C.01_AVX/g16/l1.exe "/home/fas/batista/pev4/scratch60/gauss-scratch/Gau-148808.inp" -scrdir="/home/fas/batista/pev4/scratch60/gauss-scratch/"
 Entering Link 1 = /gpfs/loomis/apps/avx/software/Gaussian/16-C.01_AVX/g16/l1.exe PID=    148809.
  
 Copyright (c) 1988-2019, Gaussian, Inc.  All Rights Reserved.
  
 This is part of the Gaussian(R) 16 program.  It is based on
 the Gaussian(R) 09 system (copyright 2009, Gaussian, Inc.),
 the Gaussian(R) 03 system (copyright 2003, Gaussian, Inc.),
 the Gaussian(R) 98 system (copyright 1998, Gaussian, Inc.),
 the Gaussian(R) 94 system (copyright 1995, Gaussian, Inc.),
 the Gaussian 92(TM) system (copyright 1992, Gaussian, Inc.),
 the Gaussian 90(TM) system (copyright 1990, Gaussian, Inc.),
 the Gaussian 88(TM) system (copyright 1988, Gaussian, Inc.),
 the Gaussian 86(TM) system (copyright 1986, Carnegie Mellon
 University), and the Gaussian 82(TM) system (copyright 1983,
 Carnegie Mellon University). Gaussian is a federally registered
 trademark of Gaussian, Inc.
  
 This software contains proprietary and confidential information,
 including trade secrets, belonging to Gaussian, Inc.
  
 This software is provided under written license and may be
 used, copied, transmitted, or stored only in accord with that
 written license.
  
 The following legend is applicable only to US Government
 contracts under FAR:
  
                    RESTRICTED RIGHTS LEGEND
  
 Use, reproduction and disclosure by the US Government is
 subject to restrictions as set forth in subparagraphs (a)
 and (c) of the Commercial Computer Software - Restricted
 Rights clause in FAR 52.227-19.
  
 Gaussian, Inc.
 340 Quinnipiac St., Bldg. 40, Wallingford CT 06492
  
  
 ---------------------------------------------------------------
 Warning -- This program may not be used in any manner that
 competes with the business of Gaussian, Inc. or will provide
 assistance to any competitor of Gaussian, Inc.  The licensee
 of this program is prohibited from giving any competitor of
 Gaussian, Inc. access to this program.  By using this program,
 the user acknowledges that Gaussian, Inc. is engaged in the
 business of creating and licensing software in the field of
 computational chemistry and represents and warrants to the
 licensee that it is not a competitor of Gaussian, Inc. and that
 it will not use this program in any manner prohibited above.
 ---------------------------------------------------------------
  

 Cite this work as:
 Gaussian 16, Revision C.01,
 M. J. Frisch, G. W. Trucks, H. B. Schlegel, G. E. Scuseria, 
 M. A. Robb, J. R. Cheeseman, G. Scalmani, V. Barone, 
 G. A. Petersson, H. Nakatsuji, X. Li, M. Caricato, A. V. Marenich, 
 J. Bloino, B. G. Janesko, R. Gomperts, B. Mennucci, H. P. Hratchian, 
 J. V. Ortiz, A. F. Izmaylov, J. L. Sonnenberg, D. Williams-Young, 
 F. Ding, F. Lipparini, F. Egidi, J. Goings, B. Peng, A. Petrone, 
 T. Henderson, D. Ranasinghe, V. G. Zakrzewski, J. Gao, N. Rega, 
 G. Zheng, W. Liang, M. Hada, M. Ehara, K. Toyota, R. Fukuda, 
 J. Hasegawa, M. Ishida, T. Nakajima, Y. Honda, O. Kitao, H. Nakai, 
 T. Vreven, K. Throssell, J. A. Montgomery, Jr., J. E. Peralta, 
 F. Ogliaro, M. J. Bearpark, J. J. Heyd, E. N. Brothers, K. N. Kudin, 
 V. N. Staroverov, T. A. Keith, R. Kobayashi, J. Normand, 
 K. Raghavachari, A. P. Rendell, J. C. Burant, S. S. Iyengar, 
 J. Tomasi, M. Cossi, J. M. Millam, M. Klene, C. Adamo, R. Cammi, 
 J. W. Ochterski, R. L. Martin, K. Morokuma, O. Farkas, 
 J. B. Foresman, and D. J. Fox, Gaussian, Inc., Wallingford CT, 2019.
 
 ******************************************
 Gaussian 16:  ES64L-G16RevC.01  3-Jul-2019
                15-Nov-2021 
 ******************************************
 %chk=Rebpy_S0_freq.chk
 %mem=59GB
 %nprocshared=12
 Will use up to   12 processors via shared memory.
 ----------------------------------------------------------------------
 #p freq=(raman,printderivatives,savenm) wb97xd/genecp nosymm geom=conn
 ectivity
 ----------------------------------------------------------------------
 1/10=4,30=1,38=1,57=2/1,3;
 2/12=2,15=1,17=6,18=5,40=1/2;
 3/5=7,11=2,16=1,17=8,25=1,30=1,71=2,74=-58,140=1/1,2,3;
 4//1;
 5/5=2,38=5,98=1/2;
 8/6=4,10=90,11=11/1;
 10/13=10,15=4,31=1/2;
 11/6=3,8=1,9=11,15=111,16=1,31=1/1,2,10;
 10/6=1,31=1/2;
 6/7=2,8=2,9=2,10=2,28=1/1;
 7/8=1000001,10=1,25=1,30=1,92=1/1,2,3,16;
 1/10=4,30=1/3;
 99//99;
 Leave Link    1 at Mon Nov 15 16:11:05 2021, MaxMem=  7918845952 cpu:               4.7 elap:               0.5
 (Enter /gpfs/loomis/apps/avx/software/Gaussian/16-C.01_AVX/g16/l101.exe)
 -------------------------
 Freq of Rebpy on S0 state
 -------------------------
 Symbolic Z-matrix:
 Charge =  0 Multiplicity = 1
 Re                    0.        0.        2.97351 
 C                     0.74152   0.       -0.00001 
 C                    -0.74152   0.        0.00001 
 H                    -1.02032   0.10647  -2.13998 
 H                     1.02062   0.10653  -2.14004 
 C                    -1.50126   0.05573  -1.16732 
 C                     1.50134   0.05579  -1.16729 
 C                    -2.88719   0.05341  -1.08115 
 C                     2.88729   0.05347  -1.08094 
 N                    -1.32556  -0.06094   1.21305 
 C                    -3.48067  -0.00687   0.17474 
 C                     3.48056  -0.00691   0.17502 
 H                    -4.56142  -0.00697   0.29776 
 H                     4.5613   -0.00707   0.29815 
 N                     1.32537  -0.06101   1.21308 
 C                    -2.66156  -0.06141   1.29299 
 C                     2.66133  -0.06156   1.29318 
 H                    -3.08249  -0.10132   2.29454 
 H                     3.08223  -0.10159   2.29473 
 C                     0.00007  -1.8885    3.21054 
 Cl                   -0.00009   2.44335   2.44355 
 O                     0.00002  -3.0402    3.35095 
 C                     1.33742   0.16925   4.33842 
 C                    -1.33679   0.16942   4.33906 
 O                     2.16517   0.26143   5.1385 
 H                     3.49448   0.10113  -1.98368 
 O                    -2.16391   0.26177   5.13978 
 H                    -3.49434   0.10101  -1.98393 
 
 ITRead=  0  0  0  0  0  0  0  0  0  0  0  0  0  0  0  0  0  0  0  0
 ITRead=  0  0  0  0  0  0  0  0
 MicOpt= -1 -1 -1 -1 -1 -1 -1 -1 -1 -1 -1 -1 -1 -1 -1 -1 -1 -1 -1 -1
 MicOpt= -1 -1 -1 -1 -1 -1 -1 -1
 NAtoms=     28 NQM=       28 NQMF=       0 NMMI=      0 NMMIF=      0
                NMic=       0 NMicF=      0.
                    Isotopes and Nuclear Properties:
 (Nuclear quadrupole moments (NQMom) in fm**2, nuclear magnetic moments (NMagM)
  in nuclear magnetons)

  Atom         1           2           3           4           5           6           7           8           9          10
 IAtWgt=         187          12          12           1           1          12          12          12          12          14
 AtmWgt= 186.9560000  12.0000000  12.0000000   1.0078250   1.0078250  12.0000000  12.0000000  12.0000000  12.0000000  14.0030740
 NucSpn=           5           0           0           1           1           0           0           0           0           2
 AtZEff=  -0.0000000  -0.0000000  -0.0000000  -0.0000000  -0.0000000  -0.0000000  -0.0000000  -0.0000000  -0.0000000  -0.0000000
 NQMom=  207.0000000   0.0000000   0.0000000   0.0000000   0.0000000   0.0000000   0.0000000   0.0000000   0.0000000   2.0440000
 NMagM=    3.2197000   0.0000000   0.0000000   2.7928460   2.7928460   0.0000000   0.0000000   0.0000000   0.0000000   0.4037610
 AtZNuc=  75.0000000   6.0000000   6.0000000   1.0000000   1.0000000   6.0000000   6.0000000   6.0000000   6.0000000   7.0000000

  Atom        11          12          13          14          15          16          17          18          19          20
 IAtWgt=          12          12           1           1          14          12          12           1           1          12
 AtmWgt=  12.0000000  12.0000000   1.0078250   1.0078250  14.0030740  12.0000000  12.0000000   1.0078250   1.0078250  12.0000000
 NucSpn=           0           0           1           1           2           0           0           1           1           0
 AtZEff=  -0.0000000  -0.0000000  -0.0000000  -0.0000000  -0.0000000  -0.0000000  -0.0000000  -0.0000000  -0.0000000  -0.0000000
 NQMom=    0.0000000   0.0000000   0.0000000   0.0000000   2.0440000   0.0000000   0.0000000   0.0000000   0.0000000   0.0000000
 NMagM=    0.0000000   0.0000000   2.7928460   2.7928460   0.4037610   0.0000000   0.0000000   2.7928460   2.7928460   0.0000000
 AtZNuc=   6.0000000   6.0000000   1.0000000   1.0000000   7.0000000   6.0000000   6.0000000   1.0000000   1.0000000   6.0000000

  Atom        21          22          23          24          25          26          27          28
 IAtWgt=          35          16          12          12          16           1          16           1
 AtmWgt=  34.9688527  15.9949146  12.0000000  12.0000000  15.9949146   1.0078250  15.9949146   1.0078250
 NucSpn=           3           0           0           0           0           1           0           1
 AtZEff=  -0.0000000  -0.0000000  -0.0000000  -0.0000000  -0.0000000  -0.0000000  -0.0000000  -0.0000000
 NQMom=   -8.1650000   0.0000000   0.0000000   0.0000000   0.0000000   0.0000000   0.0000000   0.0000000
 NMagM=    0.8218740   0.0000000   0.0000000   0.0000000   0.0000000   2.7928460   0.0000000   2.7928460
 AtZNuc=  17.0000000   8.0000000   6.0000000   6.0000000   8.0000000   1.0000000   8.0000000   1.0000000
 Leave Link  101 at Mon Nov 15 16:11:06 2021, MaxMem=  7918845952 cpu:               2.4 elap:               0.3
 (Enter /gpfs/loomis/apps/avx/software/Gaussian/16-C.01_AVX/g16/l103.exe)

 GradGradGradGradGradGradGradGradGradGradGradGradGradGradGradGradGradGrad
 Berny optimization.
 Initialization pass.
 Trust Radius=3.00D-01 FncErr=1.00D-07 GrdErr=1.00D-07 EigMax=2.50D+02 EigMin=1.00D-04
 Number of steps in this run=      2 maximum allowed number of steps=      2.
 GradGradGradGradGradGradGradGradGradGradGradGradGradGradGradGradGradGrad

 Leave Link  103 at Mon Nov 15 16:11:06 2021, MaxMem=  7918845952 cpu:               0.3 elap:               0.1
 (Enter /gpfs/loomis/apps/avx/software/Gaussian/16-C.01_AVX/g16/l202.exe)
                          Input orientation:                          
 ---------------------------------------------------------------------
 Center     Atomic      Atomic             Coordinates (Angstroms)
 Number     Number       Type             X           Y           Z
 ---------------------------------------------------------------------
      1         75           0        0.000000    0.000000    2.973506
      2          6           0        0.741520    0.000000   -0.000007
      3          6           0       -0.741524    0.000000    0.000007
      4          1           0       -1.020324    0.106469   -2.139981
      5          1           0        1.020624    0.106532   -2.140039
      6          6           0       -1.501258    0.055731   -1.167322
      7          6           0        1.501345    0.055793   -1.167286
      8          6           0       -2.887194    0.053407   -1.081150
      9          6           0        2.887285    0.053470   -1.080935
     10          7           0       -1.325564   -0.060940    1.213055
     11          6           0       -3.480670   -0.006866    0.174743
     12          6           0        3.480564   -0.006913    0.175018
     13          1           0       -4.561423   -0.006971    0.297762
     14          1           0        4.561299   -0.007066    0.298152
     15          7           0        1.325369   -0.061014    1.213077
     16          6           0       -2.661555   -0.061412    1.292993
     17          6           0        2.661330   -0.061556    1.293180
     18          1           0       -3.082493   -0.101318    2.294542
     19          1           0        3.082232   -0.101591    2.294731
     20          6           0        0.000068   -1.888501    3.210539
     21         17           0       -0.000091    2.443349    2.443555
     22          8           0        0.000017   -3.040200    3.350946
     23          6           0        1.337419    0.169251    4.338415
     24          6           0       -1.336786    0.169417    4.339057
     25          8           0        2.165173    0.261434    5.138504
     26          1           0        3.494483    0.101131   -1.983681
     27          8           0       -2.163908    0.261770    5.139780
     28          1           0       -3.494339    0.101010   -1.983935
 ---------------------------------------------------------------------
                    Distance matrix (angstroms):
                    1          2          3          4          5
     1  Re   0.000000
     2  C    3.064577   0.000000
     3  C    3.064565   1.483044   0.000000
     4  H    5.215376   2.773971   2.160697   0.000000
     5  H    5.215493   2.160784   2.774222   2.040948   0.000000
     6  C    4.404923   2.528989   1.393900   1.086249   2.703451
     7  C    4.404919   1.393910   2.529060   2.703242   1.086239
     8  C    4.977849   3.786725   2.403259   2.146891   4.049087
     9  C    4.977728   2.403242   3.786760   4.048925   2.146845
    10  N    2.204546   2.397513   1.347703   3.371060   4.095837
    11  C    4.466339   4.225810   2.744722   3.379955   5.062877
    12  C    4.466084   2.744639   4.225719   5.062614   3.379891
    13  H    5.288311   5.311301   3.831492   4.300563   6.092208
    14  H    5.288007   3.831404   5.311202   6.091953   4.300472
    15  N    2.204414   1.347655   2.397354   4.095524   3.371102
    16  C    3.148297   3.640953   2.315622   3.808822   5.037098
    17  C    3.148010   2.315555   3.640811   5.036805   3.808827
    18  H    3.158009   4.460750   3.279526   4.894967   6.045186
    19  H    3.157723   3.279493   4.460627   6.044909   4.894969
    20  C    1.903318   3.797866   3.797882   5.800790   5.800894
    21  Cl   2.500160   3.534251   3.534205   5.245062   5.245179
    22  O    3.063540   4.584924   4.584921   6.410375   6.410498
    23  C    1.918414   4.382425   4.813776   6.894382   6.486499
    24  C    1.918444   4.814097   4.382967   6.487067   6.894927
    25  O    3.073034   5.338486   5.909433   7.946556   7.369612
    26  H    6.065917   3.394701   4.678568   4.517515   2.478802
    27  O    3.073071   5.909945   5.339380   7.370673   7.947397
    28  H    6.066039   4.678533   3.394733   2.478937   4.517664
                    6          7          8          9         10
     6  C    0.000000
     7  C    3.002603   0.000000
     8  C    1.388614   4.389385   0.000000
     9  C    4.389394   1.388630   5.774479   0.000000
    10  N    2.389702   3.697440   2.777614   4.798289   0.000000
    11  C    2.392306   5.159984   1.390365   6.490857   2.392801
    12  C    5.159879   2.392283   6.490758   1.390340   4.917245
    13  H    3.393377   6.237584   2.169812   7.575468   3.363251
    14  H    6.237480   3.393343   7.575367   2.169762   5.957777
    15  N    3.697262   2.389715   4.798151   2.777621   2.650933
    16  C    2.722712   4.836987   2.387604   6.036420   1.338381
    17  C    4.836835   2.722724   6.036289   2.387616   3.987699
    18  H    3.809130   5.746347   3.384875   6.859742   2.063503
    19  H    5.746211   3.809138   6.859639   3.384844   4.538760
    20  C    5.019929   5.019906   5.525023   5.524855   3.014502
    21  Cl   4.581774   4.581801   5.144972   5.144948   3.089089
    22  O    5.679205   5.679224   6.127795   6.127699   3.899197
    23  C    6.195492   5.509309   6.872588   5.637805   4.112462
    24  C    5.510008   6.195781   5.638783   6.872593   3.134498
    25  O    7.297156   6.343969   8.015847   6.264673   5.262920
    26  H    5.062207   2.154335   6.445358   1.088995   5.786038
    27  O    6.345163   7.297642   6.266301   8.015937   4.028168
    28  H    2.154362   5.062194   1.088995   6.445370   3.866595
                   11         12         13         14         15
    11  C    0.000000
    12  C    6.961234   0.000000
    13  H    1.087732   8.042923   0.000000
    14  H    8.042916   1.087727   9.122722   0.000000
    15  N    4.917223   2.392771   5.957771   3.363219   0.000000
    16  C    1.387230   6.243273   2.145447   7.291247   3.987725
    17  C    6.243241   1.387232   7.291228   2.145444   1.338361
    18  H    2.158937   6.897464   2.486617   7.900760   4.538771
    19  H    6.897464   2.158891   7.900778   2.486544   2.063538
    20  C    4.987198   4.986843   5.729888   5.729452   3.014297
    21  Cl   4.823431   4.823380   5.604841   5.604780   3.089135
    22  O    5.603978   5.603709   6.271295   6.270945   3.899051
    23  C    6.370335   4.685934   7.152222   5.171868   3.133833
    24  C    4.687091   6.370021   5.173148   7.151745   4.112410
    25  O    7.522397   5.141834   8.291678   5.407636   4.027186
    26  H    7.302275   2.161446   8.373428   2.521222   3.866601
    27  O    5.143697   7.522042   5.409754   8.291083   5.262912
    28  H    2.161415   7.302191   2.521204   8.373344   5.785907
                   16         17         18         19         20
    16  C    0.000000
    17  C    5.322886   0.000000
    18  H    1.087144   5.830593   0.000000
    19  H    5.830625   1.087136   6.164725   0.000000
    20  C    3.754927   3.754505   3.679029   3.678517   0.000000
    21  Cl   3.831581   3.831589   3.999842   3.999948   4.399225
    22  O    4.493586   4.493252   4.388039   4.387604   1.160227
    23  C    5.031859   3.328584   4.877115   2.700810   2.700917
    24  C    3.329685   5.031466   2.702006   4.876519   2.701066
    25  O    6.179765   3.890632   5.979776   3.009956   3.609287
    26  H    6.975659   3.385030   7.848617   4.303005   6.568827
    27  O    3.892284   6.179304   3.011812   5.978991   3.609492
    28  H    3.384991   6.975541   4.303012   7.848523   6.568986
                   21         22         23         24         25
    21  Cl   0.000000
    22  O    5.558117   0.000000
    23  C    3.248223   3.614459   0.000000
    24  C    3.248145   3.614560   2.674205   0.000000
    25  O    4.088016   4.334058   1.154910   3.593230   0.000000
    26  H    6.107245   7.108974   6.680304   7.957565   7.246950
    27  O    4.087912   4.334225   3.593055   1.154911   4.329082
    28  H    6.107289   7.109056   7.957553   6.681312   9.098624
                   26         27         28
    26  H    0.000000
    27  O    9.098730   0.000000
    28  H    6.988822   7.248669   0.000000
 Symmetry turned off by external request.
 Stoichiometry    C13H8ClN2O3Re
 Framework group  C1[X(C13H8ClN2O3Re)]
 Deg. of freedom    78
 Full point group                 C1      NOp   1
 Rotational constants (GHZ):           0.3465998           0.2796228           0.2050173
 Leave Link  202 at Mon Nov 15 16:11:06 2021, MaxMem=  7918845952 cpu:               0.3 elap:               0.1
 (Enter /gpfs/loomis/apps/avx/software/Gaussian/16-C.01_AVX/g16/l301.exe)
 General basis read from cards:  (5D, 7F)
 Centers:       2      3      6      7      8      9     11     12     16     17
 Centers:      20     23     24      4      5     13     14     18     19     26
 Centers:      28     10     15     21     22     25     27
 aug-cc-pvdz
 ****
 Centers:       1
 LANL2DZ
 ****
 ======================================================================================================
                                       Pseudopotential Parameters
 ======================================================================================================
  Center     Atomic      Valence      Angular      Power
  Number     Number     Electrons     Momentum     of R      Exponent        Coefficient   SO-Coeffient
 ======================================================================================================
    1         75           15
                                      G and up 
                                                     1     1833.8143836       -0.14971040    0.00000000
                                                     2      414.0589456    -1669.25557810    0.00000000
                                                     2       59.0349540     -346.66611290    0.00000000
                                                     2       11.9177094      -96.66848920    0.00000000
                                                     2        3.6531764      -11.07385670    0.00000000
                                                     2        1.2764184       -0.57985520    0.00000000
                                      S - G
                                                     0      247.0023085        3.14971040    0.00000000
                                                     1      631.7195767       45.29699690    0.00000000
                                                     2      249.2800441     1116.42795850    0.00000000
                                                     2       84.2947315      793.64190650    0.00000000
                                                     2       23.0407912      318.20991930    0.00000000
                                                     2        4.2997111      586.31050250    0.00000000
                                                     2        4.0974390     -475.69041640    0.00000000
                                      P - G
                                                     0      193.6897726        2.14971040    0.00000000
                                                     1       56.9308394       64.22957360    0.00000000
                                                     2       18.7227602      218.85046070    0.00000000
                                                     2        3.7340020      344.41891680    0.00000000
                                                     2        3.5127483     -260.47272670    0.00000000
                                      D - G
                                                     0      126.2340824        3.14971040    0.00000000
                                                     1       80.7090826       46.57148680    0.00000000
                                                     2       42.5529714      304.38345950    0.00000000
                                                     2       13.4074494      157.15896520    0.00000000
                                                     2        3.6904228       48.57012110    0.00000000
                                      F - G
                                                     0      112.7786459        3.95696100    0.00000000
                                                     1       56.7815968       52.35867810    0.00000000
                                                     2       28.5831966      236.03408240    0.00000000
                                                     2        8.5734158      116.57872660    0.00000000
                                                     2        2.0892721       11.10505300    0.00000000
    2          6
                                   No pseudopotential on this center.
    3          6
                                   No pseudopotential on this center.
    4          1
                                   No pseudopotential on this center.
    5          1
                                   No pseudopotential on this center.
    6          6
                                   No pseudopotential on this center.
    7          6
                                   No pseudopotential on this center.
    8          6
                                   No pseudopotential on this center.
    9          6
                                   No pseudopotential on this center.
   10          7
                                   No pseudopotential on this center.
   11          6
                                   No pseudopotential on this center.
   12          6
                                   No pseudopotential on this center.
   13          1
                                   No pseudopotential on this center.
   14          1
                                   No pseudopotential on this center.
   15          7
                                   No pseudopotential on this center.
   16          6
                                   No pseudopotential on this center.
   17          6
                                   No pseudopotential on this center.
   18          1
                                   No pseudopotential on this center.
   19          1
                                   No pseudopotential on this center.
   20          6
                                   No pseudopotential on this center.
   21         17
                                   No pseudopotential on this center.
   22          8
                                   No pseudopotential on this center.
   23          6
                                   No pseudopotential on this center.
   24          6
                                   No pseudopotential on this center.
   25          8
                                   No pseudopotential on this center.
   26          1
                                   No pseudopotential on this center.
   27          8
                                   No pseudopotential on this center.
   28          1
                                   No pseudopotential on this center.
 ======================================================================================================
 Ernie: Thresh=  0.10000D-02 Tol=  0.10000D-05 Strict=F.
 Ernie:  47 primitive shells out of 576 were deleted.
   535 basis functions,   986 primitive gaussians,   575 cartesian basis functions
    78 alpha electrons       78 beta electrons
       nuclear repulsion energy      1779.2592907980 Hartrees.
 IExCor= 4639 DFT=T Ex+Corr=wB97XD ExCW=0 ScaHFX=  1.000000
 ScaDFX=  1.000000  1.000000  1.000000  1.000000 ScalE2=  1.000000  1.000000
 IRadAn=      5 IRanWt=     -1 IRanGd=            0 ICorTp=0 IEmpDi=121
 HFx  wShort=  0.000000 wLong=  0.200000 cFull=  0.222036 cShort=  0.000000 cLong=  0.777964
 DFx  wShort=  0.000000 wLong=  0.200000 cFull=  0.000000 cShort=  0.000000 cLong=  1.000000
 NAtoms=   28 NActive=   28 NUniq=   28 SFac= 1.00D+00 NAtFMM=   60 NAOKFM=F Big=F
 Integral buffers will be    131072 words long.
 Raffenetti 2 integral format.
 Two-electron integral symmetry is turned off.
 R6Disp:  Grimme-D2 Dispersion energy=       -0.0266878071 Hartrees.
 Nuclear repulsion after empirical dispersion term =     1779.2326029909 Hartrees.
 Leave Link  301 at Mon Nov 15 16:11:06 2021, MaxMem=  7918845952 cpu:               0.8 elap:               0.1
 (Enter /gpfs/loomis/apps/avx/software/Gaussian/16-C.01_AVX/g16/l302.exe)
 NPDir=0 NMtPBC=     1 NCelOv=     1 NCel=       1 NClECP=     1 NCelD=      1
         NCelK=      1 NCelE2=     1 NClLst=     1 CellRange=     0.0.
 One-electron integrals computed using PRISM.
   1 Symmetry operations used in ECPInt.
 ECPInt:  NShTT=   24531 NPrTT=  141152 LenC2=   23823 LenP2D=   87040.
 LDataN:  DoStor=T MaxTD1= 6 Len=  172
 NBasis=   535 RedAO= T EigKep=  2.00D-06  NBF=   535
 NBsUse=   534 1.00D-06 EigRej=  7.49D-07 NBFU=   534
 Precomputing XC quadrature grid using
 IXCGrd= 4 IRadAn=           5 IRanWt=          -1 IRanGd=           0 AccXCQ= 0.00D+00.
 Defaulting to unpruned grid for atomic number  75.
 Generated NRdTot=       0 NPtTot=           0 NUsed=           0 NTot=          32
 NSgBfM=   575   575   575   575   575 MxSgAt=    28 MxSgA2=    28.
 Leave Link  302 at Mon Nov 15 16:11:08 2021, MaxMem=  7918845952 cpu:              13.5 elap:               1.4
 (Enter /gpfs/loomis/apps/avx/software/Gaussian/16-C.01_AVX/g16/l303.exe)
 DipDrv:  MaxL=1.
 Leave Link  303 at Mon Nov 15 16:11:08 2021, MaxMem=  7918845952 cpu:               1.0 elap:               0.1
 (Enter /gpfs/loomis/apps/avx/software/Gaussian/16-C.01_AVX/g16/l401.exe)
 ExpMin= 2.80D-02 ExpMax= 1.28D+05 ExpMxC= 1.24D+03 IAcc=3 IRadAn=         5 AccDes= 0.00D+00
 Harris functional with IExCor= 4639 and IRadAn=       5 diagonalized for initial guess.
 HarFok:  IExCor= 4639 AccDes= 0.00D+00 IRadAn=         5 IDoV= 1 UseB2=F ITyADJ=14
 ICtDFT=  3500011 ScaDFX=  1.000000  1.000000  1.000000  1.000000
 Defaulting to unpruned grid for atomic number  75.
 FoFCou: FMM=F IPFlag=           0 FMFlag=      100000 FMFlg1=           0
         NFxFlg=           0 DoJE=T BraDBF=F KetDBF=T FulRan=T
         wScrn=  0.000000 ICntrl=       500 IOpCl=  0 I1Cent=   200000004 NGrid=           0
         NMat0=    1 NMatS0=      1 NMatT0=    0 NMatD0=    1 NMtDS0=    0 NMtDT0=    0
 Symmetry not used in FoFCou.
 Harris En= -1329.86994963939    
 JPrj=0 DoOrth=F DoCkMO=F.
 Leave Link  401 at Mon Nov 15 16:11:12 2021, MaxMem=  7918845952 cpu:              45.1 elap:               3.9
 (Enter /gpfs/loomis/apps/avx/software/Gaussian/16-C.01_AVX/g16/l502.exe)
 Two-electron integral symmetry not used.
 Closed shell SCF:
 Using DIIS extrapolation, IDIIS=  1040.
 NGot=  7918845952 LenX=  7918173305 LenY=  7917842105
 Requested convergence on RMS density matrix=1.00D-08 within 128 cycles.
 Requested convergence on MAX density matrix=1.00D-06.
 Requested convergence on             energy=1.00D-06.
 No special actions if energy rises.
 Fock matrices will be formed incrementally for  20 cycles.

 Cycle   1  Pass 1  IDiag  1:
 FoFJK:  IHMeth= 1 ICntrl=       0 DoSepK=T KAlg= 0 I1Cent=           0 FoldK=F
 IRaf=         1 NMat=       1 IRICut=       1 DoRegI=T DoRafI=F ISym2E= 0 IDoP0=0 IntGTp=1.
 FoFCou: FMM=F IPFlag=           0 FMFlag=      100000 FMFlg1=           0
         NFxFlg=           0 DoJE=T BraDBF=F KetDBF=F FulRan=T
         wScrn=  0.000000 ICntrl=       500 IOpCl=  0 I1Cent=           0 NGrid=           0
         NMat0=    1 NMatS0=      1 NMatT0=    0 NMatD0=    1 NMtDS0=    0 NMtDT0=    0
 Symmetry not used in FoFCou.
 Defaulting to unpruned grid for atomic number  75.
 Defaulting to unpruned grid for atomic number  75.
 Defaulting to unpruned grid for atomic number  75.
 Defaulting to unpruned grid for atomic number  75.
 Defaulting to unpruned grid for atomic number  75.
 Defaulting to unpruned grid for atomic number  75.
 Defaulting to unpruned grid for atomic number  75.
 Defaulting to unpruned grid for atomic number  75.
 Defaulting to unpruned grid for atomic number  75.
 Defaulting to unpruned grid for atomic number  75.
 Defaulting to unpruned grid for atomic number  75.
 Defaulting to unpruned grid for atomic number  75.
 E= -1374.16079167037    
 DIIS: error= 2.62D-02 at cycle   1 NSaved=   1.
 NSaved= 1 IEnMin= 1 EnMin= -1374.16079167037     IErMin= 1 ErrMin= 2.62D-02
 ErrMax= 2.62D-02  0.00D+00 EMaxC= 1.00D-01 BMatC= 7.97D-01 BMatP= 7.97D-01
 IDIUse=3 WtCom= 7.38D-01 WtEn= 2.62D-01
 Coeff-Com:  0.100D+01
 Coeff-En:   0.100D+01
 Coeff:      0.100D+01
 Gap=     0.298 Goal=   None    Shift=    0.000
 GapD=    0.298 DampG=1.000 DampE=0.250 DampFc=0.2500 IDamp=-1.
 Damping current iteration by 2.50D-01
 RMSDP=3.11D-02 MaxDP=1.58D+00              OVMax= 2.53D-01

 Cycle   2  Pass 1  IDiag  1:
 RMSU=  7.59D-03    CP:  9.77D-01
 E= -1374.34144089431     Delta-E=       -0.180649223940 Rises=F Damp=T
 DIIS: error= 1.31D-02 at cycle   2 NSaved=   2.
 NSaved= 2 IEnMin= 2 EnMin= -1374.34144089431     IErMin= 2 ErrMin= 1.31D-02
 ErrMax= 1.31D-02  0.00D+00 EMaxC= 1.00D-01 BMatC= 2.50D-01 BMatP= 7.97D-01
 IDIUse=3 WtCom= 8.69D-01 WtEn= 1.31D-01
 Coeff-Com: -0.686D+00 0.169D+01
 Coeff-En:   0.000D+00 0.100D+01
 Coeff:     -0.596D+00 0.160D+01
 Gap=     0.351 Goal=   None    Shift=    0.000
 RMSDP=1.65D-02 MaxDP=1.38D+00 DE=-1.81D-01 OVMax= 2.93D-01

 Cycle   3  Pass 1  IDiag  1:
 RMSU=  8.91D-03    CP:  7.84D-01  1.28D+00
 E= -1374.60184010814     Delta-E=       -0.260399213827 Rises=F Damp=F
 DIIS: error= 1.23D-02 at cycle   3 NSaved=   3.
 NSaved= 3 IEnMin= 3 EnMin= -1374.60184010814     IErMin= 3 ErrMin= 1.23D-02
 ErrMax= 1.23D-02  0.00D+00 EMaxC= 1.00D-01 BMatC= 1.04D-01 BMatP= 2.50D-01
 IDIUse=3 WtCom= 8.77D-01 WtEn= 1.23D-01
 Coeff-Com: -0.500D+00 0.893D+00 0.607D+00
 Coeff-En:   0.000D+00 0.000D+00 0.100D+01
 Coeff:     -0.438D+00 0.783D+00 0.655D+00
 Gap=     0.248 Goal=   None    Shift=    0.000
 RMSDP=3.55D-03 MaxDP=2.93D-01 DE=-2.60D-01 OVMax= 1.25D-01

 Cycle   4  Pass 1  IDiag  1:
 RMSU=  1.84D-03    CP:  7.80D-01  1.66D+00  8.85D-01
 E= -1374.64542769048     Delta-E=       -0.043587582344 Rises=F Damp=F
 DIIS: error= 1.21D-02 at cycle   4 NSaved=   4.
 NSaved= 4 IEnMin= 4 EnMin= -1374.64542769048     IErMin= 4 ErrMin= 1.21D-02
 ErrMax= 1.21D-02  0.00D+00 EMaxC= 1.00D-01 BMatC= 6.35D-02 BMatP= 1.04D-01
 IDIUse=3 WtCom= 8.79D-01 WtEn= 1.21D-01
 Coeff-Com: -0.190D+00 0.292D+00 0.467D+00 0.431D+00
 Coeff-En:   0.000D+00 0.000D+00 0.377D+00 0.623D+00
 Coeff:     -0.167D+00 0.257D+00 0.456D+00 0.454D+00
 Gap=     0.234 Goal=   None    Shift=    0.000
 RMSDP=1.97D-03 MaxDP=1.55D-01 DE=-4.36D-02 OVMax= 4.11D-02

 Cycle   5  Pass 1  IDiag  1:
 RMSU=  7.18D-04    CP:  7.66D-01  1.48D+00  9.41D-01  7.89D-01
 E= -1374.69350109979     Delta-E=       -0.048073409303 Rises=F Damp=F
 DIIS: error= 1.49D-03 at cycle   5 NSaved=   5.
 NSaved= 5 IEnMin= 5 EnMin= -1374.69350109979     IErMin= 5 ErrMin= 1.49D-03
 ErrMax= 1.49D-03  0.00D+00 EMaxC= 1.00D-01 BMatC= 1.63D-03 BMatP= 6.35D-02
 IDIUse=3 WtCom= 9.85D-01 WtEn= 1.49D-02
 Coeff-Com:  0.118D-01-0.260D-01 0.118D+00 0.196D+00 0.700D+00
 Coeff-En:   0.000D+00 0.000D+00 0.000D+00 0.000D+00 0.100D+01
 Coeff:      0.116D-01-0.256D-01 0.116D+00 0.193D+00 0.704D+00
 Gap=     0.241 Goal=   None    Shift=    0.000
 RMSDP=3.29D-04 MaxDP=1.39D-02 DE=-4.81D-02 OVMax= 9.08D-03

 Cycle   6  Pass 1  IDiag  1:
 RMSU=  2.58D-04    CP:  7.65D-01  1.49D+00  9.46D-01  7.83D-01  7.62D-01
 E= -1374.69488673533     Delta-E=       -0.001385635539 Rises=F Damp=F
 DIIS: error= 2.96D-04 at cycle   6 NSaved=   6.
 NSaved= 6 IEnMin= 6 EnMin= -1374.69488673533     IErMin= 6 ErrMin= 2.96D-04
 ErrMax= 2.96D-04  0.00D+00 EMaxC= 1.00D-01 BMatC= 9.76D-05 BMatP= 1.63D-03
 IDIUse=3 WtCom= 9.97D-01 WtEn= 2.96D-03
 Coeff-Com:  0.289D-01-0.416D-01-0.191D-01-0.155D-01 0.121D+00 0.926D+00
 Coeff-En:   0.000D+00 0.000D+00 0.000D+00 0.000D+00 0.000D+00 0.100D+01
 Coeff:      0.288D-01-0.415D-01-0.190D-01-0.154D-01 0.121D+00 0.927D+00
 Gap=     0.239 Goal=   None    Shift=    0.000
 RMSDP=1.96D-04 MaxDP=9.17D-03 DE=-1.39D-03 OVMax= 2.82D-03

 Cycle   7  Pass 1  IDiag  1:
 RMSU=  1.10D-04    CP:  7.63D-01  1.47D+00  9.52D-01  7.99D-01  8.24D-01
                    CP:  1.17D+00
 E= -1374.69499744075     Delta-E=       -0.000110705428 Rises=F Damp=F
 DIIS: error= 1.62D-04 at cycle   7 NSaved=   7.
 NSaved= 7 IEnMin= 7 EnMin= -1374.69499744075     IErMin= 7 ErrMin= 1.62D-04
 ErrMax= 1.62D-04  0.00D+00 EMaxC= 1.00D-01 BMatC= 2.25D-05 BMatP= 9.76D-05
 IDIUse=3 WtCom= 9.98D-01 WtEn= 1.62D-03
 Coeff-Com:  0.155D-01-0.208D-01-0.240D-01-0.341D-01-0.261D-01 0.472D+00
 Coeff-Com:  0.617D+00
 Coeff-En:   0.000D+00 0.000D+00 0.000D+00 0.000D+00 0.000D+00 0.000D+00
 Coeff-En:   0.100D+01
 Coeff:      0.155D-01-0.208D-01-0.240D-01-0.340D-01-0.261D-01 0.472D+00
 Coeff:      0.618D+00
 Gap=     0.239 Goal=   None    Shift=    0.000
 RMSDP=5.33D-05 MaxDP=2.09D-03 DE=-1.11D-04 OVMax= 1.55D-03

 Cycle   8  Pass 1  IDiag  1:
 RMSU=  3.62D-05    CP:  7.63D-01  1.47D+00  9.52D-01  8.03D-01  8.39D-01
                    CP:  1.21D+00  7.76D-01
 E= -1374.69502188046     Delta-E=       -0.000024439704 Rises=F Damp=F
 DIIS: error= 4.23D-05 at cycle   8 NSaved=   8.
 NSaved= 8 IEnMin= 8 EnMin= -1374.69502188046     IErMin= 8 ErrMin= 4.23D-05
 ErrMax= 4.23D-05  0.00D+00 EMaxC= 1.00D-01 BMatC= 2.05D-06 BMatP= 2.25D-05
 IDIUse=1 WtCom= 1.00D+00 WtEn= 0.00D+00
 Coeff-Com:  0.302D-02-0.370D-02-0.640D-02-0.116D-01-0.254D-01 0.595D-01
 Coeff-Com:  0.252D+00 0.733D+00
 Coeff:      0.302D-02-0.370D-02-0.640D-02-0.116D-01-0.254D-01 0.595D-01
 Coeff:      0.252D+00 0.733D+00
 Gap=     0.239 Goal=   None    Shift=    0.000
 RMSDP=3.20D-05 MaxDP=1.66D-03 DE=-2.44D-05 OVMax= 7.51D-04

 Cycle   9  Pass 1  IDiag  1:
 RMSU=  1.29D-05    CP:  7.63D-01  1.47D+00  9.52D-01  8.02D-01  8.45D-01
                    CP:  1.21D+00  8.38D-01  9.50D-01
 E= -1374.69502461251     Delta-E=       -0.000002732055 Rises=F Damp=F
 DIIS: error= 2.00D-05 at cycle   9 NSaved=   9.
 NSaved= 9 IEnMin= 9 EnMin= -1374.69502461251     IErMin= 9 ErrMin= 2.00D-05
 ErrMax= 2.00D-05  0.00D+00 EMaxC= 1.00D-01 BMatC= 2.04D-07 BMatP= 2.05D-06
 IDIUse=1 WtCom= 1.00D+00 WtEn= 0.00D+00
 Coeff-Com: -0.708D-03 0.107D-02 0.971D-03 0.763D-04-0.485D-02-0.399D-01
 Coeff-Com:  0.151D-01 0.248D+00 0.780D+00
 Coeff:     -0.708D-03 0.107D-02 0.971D-03 0.763D-04-0.485D-02-0.399D-01
 Coeff:      0.151D-01 0.248D+00 0.780D+00
 Gap=     0.239 Goal=   None    Shift=    0.000
 RMSDP=6.84D-06 MaxDP=3.52D-04 DE=-2.73D-06 OVMax= 4.83D-04

 Cycle  10  Pass 1  IDiag  1:
 RMSU=  4.69D-06    CP:  7.63D-01  1.47D+00  9.52D-01  8.02D-01  8.43D-01
                    CP:  1.21D+00  8.60D-01  9.91D-01  9.91D-01
 E= -1374.69502506016     Delta-E=       -0.000000447652 Rises=F Damp=F
 DIIS: error= 6.44D-06 at cycle  10 NSaved=  10.
 NSaved=10 IEnMin=10 EnMin= -1374.69502506016     IErMin=10 ErrMin= 6.44D-06
 ErrMax= 6.44D-06  0.00D+00 EMaxC= 1.00D-01 BMatC= 4.03D-08 BMatP= 2.04D-07
 IDIUse=1 WtCom= 1.00D+00 WtEn= 0.00D+00
 Coeff-Com: -0.736D-03 0.975D-03 0.133D-02 0.162D-02 0.235D-02-0.264D-01
 Coeff-Com: -0.323D-01-0.224D-01 0.283D+00 0.793D+00
 Coeff:     -0.736D-03 0.975D-03 0.133D-02 0.162D-02 0.235D-02-0.264D-01
 Coeff:     -0.323D-01-0.224D-01 0.283D+00 0.793D+00
 Gap=     0.239 Goal=   None    Shift=    0.000
 RMSDP=3.46D-06 MaxDP=1.76D-04 DE=-4.48D-07 OVMax= 2.88D-04

 Cycle  11  Pass 1  IDiag  1:
 RMSU=  1.66D-06    CP:  7.63D-01  1.47D+00  9.52D-01  8.01D-01  8.45D-01
                    CP:  1.21D+00  8.60D-01  1.01D+00  1.10D+00  1.05D+00
 E= -1374.69502517388     Delta-E=       -0.000000113717 Rises=F Damp=F
 DIIS: error= 2.69D-06 at cycle  11 NSaved=  11.
 NSaved=11 IEnMin=11 EnMin= -1374.69502517388     IErMin=11 ErrMin= 2.69D-06
 ErrMax= 2.69D-06  0.00D+00 EMaxC= 1.00D-01 BMatC= 6.72D-09 BMatP= 4.03D-08
 IDIUse=1 WtCom= 1.00D+00 WtEn= 0.00D+00
 Coeff-Com: -0.140D-03 0.160D-03 0.277D-03 0.517D-03 0.201D-02-0.254D-02
 Coeff-Com: -0.139D-01-0.505D-01-0.435D-01 0.270D+00 0.838D+00
 Coeff:     -0.140D-03 0.160D-03 0.277D-03 0.517D-03 0.201D-02-0.254D-02
 Coeff:     -0.139D-01-0.505D-01-0.435D-01 0.270D+00 0.838D+00
 Gap=     0.239 Goal=   None    Shift=    0.000
 RMSDP=1.39D-06 MaxDP=5.52D-05 DE=-1.14D-07 OVMax= 1.67D-04

 Cycle  12  Pass 1  IDiag  1:
 RMSU=  7.20D-07    CP:  7.63D-01  1.47D+00  9.52D-01  8.01D-01  8.46D-01
                    CP:  1.21D+00  8.61D-01  1.01D+00  1.13D+00  1.14D+00
                    CP:  1.26D+00
 E= -1374.69502520079     Delta-E=       -0.000000026911 Rises=F Damp=F
 DIIS: error= 1.53D-06 at cycle  12 NSaved=  12.
 NSaved=12 IEnMin=12 EnMin= -1374.69502520079     IErMin=12 ErrMin= 1.53D-06
 ErrMax= 1.53D-06  0.00D+00 EMaxC= 1.00D-01 BMatC= 1.53D-09 BMatP= 6.72D-09
 IDIUse=1 WtCom= 1.00D+00 WtEn= 0.00D+00
 Coeff-Com:  0.963D-04-0.138D-03-0.174D-03-0.107D-03 0.390D-03 0.454D-02
 Coeff-Com:  0.138D-02-0.143D-01-0.742D-01-0.637D-01 0.316D+00 0.831D+00
 Coeff:      0.963D-04-0.138D-03-0.174D-03-0.107D-03 0.390D-03 0.454D-02
 Coeff:      0.138D-02-0.143D-01-0.742D-01-0.637D-01 0.316D+00 0.831D+00
 Gap=     0.239 Goal=   None    Shift=    0.000
 RMSDP=5.48D-07 MaxDP=2.78D-05 DE=-2.69D-08 OVMax= 8.67D-05

 Cycle  13  Pass 1  IDiag  1:
 RMSU=  2.64D-07    CP:  7.63D-01  1.47D+00  9.52D-01  8.01D-01  8.46D-01
                    CP:  1.21D+00  8.61D-01  1.01D+00  1.13D+00  1.20D+00
                    CP:  1.39D+00  1.32D+00
 E= -1374.69502520670     Delta-E=       -0.000000005904 Rises=F Damp=F
 DIIS: error= 6.96D-07 at cycle  13 NSaved=  13.
 NSaved=13 IEnMin=13 EnMin= -1374.69502520670     IErMin=13 ErrMin= 6.96D-07
 ErrMax= 6.96D-07  0.00D+00 EMaxC= 1.00D-01 BMatC= 4.75D-10 BMatP= 1.53D-09
 IDIUse=1 WtCom= 1.00D+00 WtEn= 0.00D+00
 Coeff-Com:  0.756D-04-0.997D-04-0.142D-03-0.138D-03-0.259D-03 0.260D-02
 Coeff-Com:  0.348D-02 0.367D-02-0.239D-01-0.920D-01-0.470D-01 0.421D+00
 Coeff-Com:  0.733D+00
 Coeff:      0.756D-04-0.997D-04-0.142D-03-0.138D-03-0.259D-03 0.260D-02
 Coeff:      0.348D-02 0.367D-02-0.239D-01-0.920D-01-0.470D-01 0.421D+00
 Coeff:      0.733D+00
 Gap=     0.239 Goal=   None    Shift=    0.000
 RMSDP=3.25D-07 MaxDP=2.23D-05 DE=-5.90D-09 OVMax= 3.88D-05

 Cycle  14  Pass 1  IDiag  1:
 RMSU=  1.37D-07    CP:  7.63D-01  1.47D+00  9.52D-01  8.01D-01  8.46D-01
                    CP:  1.21D+00  8.61D-01  1.01D+00  1.13D+00  1.20D+00
                    CP:  1.49D+00  1.41D+00  1.39D+00
 E= -1374.69502520790     Delta-E=       -0.000000001206 Rises=F Damp=F
 DIIS: error= 2.37D-07 at cycle  14 NSaved=  14.
 NSaved=14 IEnMin=14 EnMin= -1374.69502520790     IErMin=14 ErrMin= 2.37D-07
 ErrMax= 2.37D-07  0.00D+00 EMaxC= 1.00D-01 BMatC= 4.12D-11 BMatP= 4.75D-10
 IDIUse=1 WtCom= 1.00D+00 WtEn= 0.00D+00
 Coeff-Com:  0.139D-04-0.167D-04-0.167D-04-0.221D-04-0.155D-03 0.111D-03
 Coeff-Com:  0.875D-03 0.331D-02 0.615D-02-0.160D-01-0.707D-01-0.165D-01
 Coeff-Com:  0.207D+00 0.886D+00
 Coeff:      0.139D-04-0.167D-04-0.167D-04-0.221D-04-0.155D-03 0.111D-03
 Coeff:      0.875D-03 0.331D-02 0.615D-02-0.160D-01-0.707D-01-0.165D-01
 Coeff:      0.207D+00 0.886D+00
 Gap=     0.239 Goal=   None    Shift=    0.000
 RMSDP=1.30D-07 MaxDP=6.06D-06 DE=-1.21D-09 OVMax= 1.30D-05

 Cycle  15  Pass 1  IDiag  1:
 RMSU=  5.31D-08    CP:  7.63D-01  1.47D+00  9.52D-01  8.01D-01  8.46D-01
                    CP:  1.21D+00  8.61D-01  1.01D+00  1.13D+00  1.20D+00
                    CP:  1.49D+00  1.52D+00  1.55D+00  1.12D+00
 E= -1374.69502520799     Delta-E=       -0.000000000092 Rises=F Damp=F
 DIIS: error= 8.45D-08 at cycle  15 NSaved=  15.
 NSaved=15 IEnMin=15 EnMin= -1374.69502520799     IErMin=15 ErrMin= 8.45D-08
 ErrMax= 8.45D-08  0.00D+00 EMaxC= 1.00D-01 BMatC= 4.84D-12 BMatP= 4.12D-11
 IDIUse=1 WtCom= 1.00D+00 WtEn= 0.00D+00
 Coeff-Com: -0.323D-05 0.466D-05 0.118D-04 0.997D-05-0.206D-04-0.278D-03
 Coeff-Com: -0.128D-03 0.677D-03 0.471D-02 0.505D-02-0.184D-01-0.502D-01
 Coeff-Com: -0.105D-01 0.287D+00 0.782D+00
 Coeff:     -0.323D-05 0.466D-05 0.118D-04 0.997D-05-0.206D-04-0.278D-03
 Coeff:     -0.128D-03 0.677D-03 0.471D-02 0.505D-02-0.184D-01-0.502D-01
 Coeff:     -0.105D-01 0.287D+00 0.782D+00
 Gap=     0.239 Goal=   None    Shift=    0.000
 RMSDP=3.63D-08 MaxDP=1.75D-06 DE=-9.23D-11 OVMax= 2.78D-06

 Cycle  16  Pass 1  IDiag  1:
 RMSU=  2.27D-08    CP:  7.63D-01  1.47D+00  9.52D-01  8.01D-01  8.46D-01
                    CP:  1.21D+00  8.61D-01  1.01D+00  1.13D+00  1.20D+00
                    CP:  1.49D+00  1.52D+00  1.60D+00  1.15D+00  1.06D+00
 E= -1374.69502520806     Delta-E=       -0.000000000066 Rises=F Damp=F
 DIIS: error= 4.13D-08 at cycle  16 NSaved=  16.
 NSaved=16 IEnMin=16 EnMin= -1374.69502520806     IErMin=16 ErrMin= 4.13D-08
 ErrMax= 4.13D-08  0.00D+00 EMaxC= 1.00D-01 BMatC= 7.55D-13 BMatP= 4.84D-12
 IDIUse=1 WtCom= 1.00D+00 WtEn= 0.00D+00
 Coeff-Com: -0.250D-05 0.322D-05 0.521D-05 0.496D-05 0.147D-04-0.917D-04
 Coeff-Com: -0.134D-03-0.195D-03 0.489D-03 0.348D-02 0.409D-02-0.119D-01
 Coeff-Com: -0.327D-01-0.457D-01 0.258D+00 0.824D+00
 Coeff:     -0.250D-05 0.322D-05 0.521D-05 0.496D-05 0.147D-04-0.917D-04
 Coeff:     -0.134D-03-0.195D-03 0.489D-03 0.348D-02 0.409D-02-0.119D-01
 Coeff:     -0.327D-01-0.457D-01 0.258D+00 0.824D+00
 Gap=     0.239 Goal=   None    Shift=    0.000
 RMSDP=1.81D-08 MaxDP=9.71D-07 DE=-6.64D-11 OVMax= 8.90D-07

 Cycle  17  Pass 1  IDiag  1:
 RMSU=  8.87D-09    CP:  7.63D-01  1.47D+00  9.52D-01  8.01D-01  8.46D-01
                    CP:  1.21D+00  8.61D-01  1.01D+00  1.13D+00  1.20D+00
                    CP:  1.49D+00  1.53D+00  1.61D+00  1.19D+00  1.18D+00
                    CP:  1.13D+00
 E= -1374.69502520800     Delta-E=        0.000000000065 Rises=F Damp=F
 DIIS: error= 1.71D-08 at cycle  17 NSaved=  17.
 NSaved=17 IEnMin=16 EnMin= -1374.69502520806     IErMin=17 ErrMin= 1.71D-08
 ErrMax= 1.71D-08  0.00D+00 EMaxC= 1.00D-01 BMatC= 1.17D-13 BMatP= 7.55D-13
 IDIUse=1 WtCom= 1.00D+00 WtEn= 0.00D+00
 Coeff-Com: -0.657D-06 0.788D-06 0.153D-06 0.442D-06 0.861D-05 0.769D-05
 Coeff-Com: -0.300D-04-0.158D-03-0.588D-03 0.371D-03 0.420D-02 0.437D-02
 Coeff-Com: -0.839D-02-0.618D-01-0.395D-01 0.236D+00 0.865D+00
 Coeff:     -0.657D-06 0.788D-06 0.153D-06 0.442D-06 0.861D-05 0.769D-05
 Coeff:     -0.300D-04-0.158D-03-0.588D-03 0.371D-03 0.420D-02 0.437D-02
 Coeff:     -0.839D-02-0.618D-01-0.395D-01 0.236D+00 0.865D+00
 Gap=     0.239 Goal=   None    Shift=    0.000
 RMSDP=6.62D-09 MaxDP=3.90D-07 DE= 6.50D-11 OVMax= 3.46D-07

 SCF Done:  E(RwB97XD) =  -1374.69502521     A.U. after   17 cycles
            NFock= 17  Conv=0.66D-08     -V/T= 2.0458
 KE= 1.314541702360D+03 PE=-6.759302098326D+03 EE= 2.290832767767D+03
 Leave Link  502 at Mon Nov 15 16:20:57 2021, MaxMem=  7918845952 cpu:            6996.6 elap:             585.6
 (Enter /gpfs/loomis/apps/avx/software/Gaussian/16-C.01_AVX/g16/l801.exe)
 DoSCS=F DFT=T ScalE2(SS,OS)=  1.000000  1.000000
 Range of M.O.s used for correlation:     1   534
 NBasis=   535 NAE=    78 NBE=    78 NFC=     0 NFV=     0
 NROrb=    534 NOA=    78 NOB=    78 NVA=   456 NVB=   456

 **** Warning!!: The largest alpha MO coefficient is  0.77127277D+02

 Leave Link  801 at Mon Nov 15 16:20:58 2021, MaxMem=  7918845952 cpu:               0.5 elap:               0.1
 (Enter /gpfs/loomis/apps/avx/software/Gaussian/16-C.01_AVX/g16/l1002.exe)
 Minotr:  Closed shell wavefunction.
          Direct CPHF calculation.
          Differentiating once with respect to electric field.
                with respect to dipole field.
          Electric field/nuclear overlap derivatives assumed to be zero.
          Requested convergence is 1.0D-08 RMS, and 1.0D-07 maximum.
          Secondary convergence is 1.0D-12 RMS, and 1.0D-12 maximum.
          NewPWx=F KeepS1=T KeepF1=T KeepIn=T MapXYZ=F SortEE=F KeepMc=T.
 Defaulting to unpruned grid for atomic number  75.
         8681 words used for storage of precomputed grid.
 Two-electron integral symmetry not used.
          MDV=    7918845952 using IRadAn=       1.
          Solving linear equations simultaneously, MaxMat=     384.
          There are     3 degrees of freedom in the 1st order CPHF.  IDoFFX=0 NUNeed=     3.
      3 vectors produced by pass  0 Test12= 1.19D-12 3.33D-08 XBig12= 1.78D+02 7.22D+00.
 AX will form     3 AO Fock derivatives at one time.
 FoFJK:  IHMeth= 1 ICntrl=       0 DoSepK=T KAlg= 0 I1Cent=           0 FoldK=F
 IRaf=         1 NMat=       3 IRICut=       1 DoRegI=T DoRafI=F ISym2E= 0 IDoP0=0 IntGTp=1.
 FoFCou: FMM=F IPFlag=           0 FMFlag=      100000 FMFlg1=           0
         NFxFlg=           0 DoJE=T BraDBF=F KetDBF=F FulRan=T
         wScrn=  0.000000 ICntrl=       500 IOpCl=  0 I1Cent=           0 NGrid=           0
         NMat0=    3 NMatS0=      3 NMatT0=    0 NMatD0=    3 NMtDS0=    0 NMtDT0=    0
 Symmetry not used in FoFCou.
 Defaulting to unpruned grid for atomic number  75.
 Defaulting to unpruned grid for atomic number  75.
 Defaulting to unpruned grid for atomic number  75.
 Defaulting to unpruned grid for atomic number  75.
 Defaulting to unpruned grid for atomic number  75.
 Defaulting to unpruned grid for atomic number  75.
 Defaulting to unpruned grid for atomic number  75.
 Defaulting to unpruned grid for atomic number  75.
 Defaulting to unpruned grid for atomic number  75.
 Defaulting to unpruned grid for atomic number  75.
 Defaulting to unpruned grid for atomic number  75.
 Defaulting to unpruned grid for atomic number  75.
      3 vectors produced by pass  1 Test12= 1.19D-12 3.33D-08 XBig12= 3.99D+01 1.44D+00.
      3 vectors produced by pass  2 Test12= 1.19D-12 3.33D-08 XBig12= 1.73D+01 7.85D-01.
      3 vectors produced by pass  3 Test12= 1.19D-12 3.33D-08 XBig12= 6.28D+00 6.46D-01.
      3 vectors produced by pass  4 Test12= 1.19D-12 3.33D-08 XBig12= 1.79D+00 5.14D-01.
      3 vectors produced by pass  5 Test12= 1.19D-12 3.33D-08 XBig12= 4.06D-01 1.47D-01.
      3 vectors produced by pass  6 Test12= 1.19D-12 3.33D-08 XBig12= 1.41D-01 9.73D-02.
      3 vectors produced by pass  7 Test12= 1.19D-12 3.33D-08 XBig12= 3.91D-02 4.69D-02.
      3 vectors produced by pass  8 Test12= 1.19D-12 3.33D-08 XBig12= 9.29D-03 1.88D-02.
      3 vectors produced by pass  9 Test12= 1.19D-12 3.33D-08 XBig12= 3.41D-03 1.09D-02.
      3 vectors produced by pass 10 Test12= 1.19D-12 3.33D-08 XBig12= 5.57D-04 3.14D-03.
      3 vectors produced by pass 11 Test12= 1.19D-12 3.33D-08 XBig12= 5.71D-05 1.36D-03.
      3 vectors produced by pass 12 Test12= 1.19D-12 3.33D-08 XBig12= 4.78D-06 4.04D-04.
      3 vectors produced by pass 13 Test12= 1.19D-12 3.33D-08 XBig12= 7.71D-07 1.77D-04.
      3 vectors produced by pass 14 Test12= 1.19D-12 3.33D-08 XBig12= 1.14D-07 8.01D-05.
      3 vectors produced by pass 15 Test12= 1.19D-12 3.33D-08 XBig12= 1.38D-08 2.97D-05.
      3 vectors produced by pass 16 Test12= 1.19D-12 3.33D-08 XBig12= 1.53D-09 8.10D-06.
      3 vectors produced by pass 17 Test12= 1.19D-12 3.33D-08 XBig12= 1.82D-10 3.24D-06.
      3 vectors produced by pass 18 Test12= 1.19D-12 3.33D-08 XBig12= 3.25D-11 1.14D-06.
      3 vectors produced by pass 19 Test12= 1.19D-12 3.33D-08 XBig12= 3.90D-12 6.65D-07.
      1 vectors produced by pass 20 Test12= 1.19D-12 3.33D-08 XBig12= 2.07D-13 1.16D-07.
 InvSVY:  IOpt=1 It=  1 EMax= 7.11D-15
 Solved reduced A of dimension    61 with     3 vectors.
 End of Minotr F.D. properties file   721 does not exist.
 End of Minotr F.D. properties file   722 does not exist.
 End of Minotr F.D. properties file   788 does not exist.
 Leave Link 1002 at Mon Nov 15 16:39:44 2021, MaxMem=  7918845952 cpu:           13478.6 elap:            1126.4
 (Enter /gpfs/loomis/apps/avx/software/Gaussian/16-C.01_AVX/g16/l1101.exe)
 Using compressed storage, NAtomX=    28.
 Will process     29 centers per pass.
   1 Symmetry operations used in ECPInt.
 ECPInt:  NShTT=   24531 NPrTT=  141152 LenC2=   23823 LenP2D=   87040.
 LDataN:  DoStor=T MaxTD1= 7 Len=  274
 R6Disp: Adding Grimme-D2 dispersion energy 1st derivatives to the gradient.
 Leave Link 1101 at Mon Nov 15 16:39:47 2021, MaxMem=  7918845952 cpu:              24.7 elap:               2.4
 (Enter /gpfs/loomis/apps/avx/software/Gaussian/16-C.01_AVX/g16/l1102.exe)
 Symmetrizing basis deriv contribution to polar:
 IMax=3 JMax=2 DiffMx= 0.00D+00
 Leave Link 1102 at Mon Nov 15 16:39:47 2021, MaxMem=  7918845952 cpu:               2.2 elap:               0.2
 (Enter /gpfs/loomis/apps/avx/software/Gaussian/16-C.01_AVX/g16/l1110.exe)
 Forming Gx(P) for the SCF density, NAtomX=    28.
 Integral derivatives from FoFJK, PRISM(SPDF).
 Do as many integral derivatives as possible in FoFJK.
 G2DrvN: MDV=    7918842988.
 G2DrvN: will do    29 centers at a time, making    1 passes.
 PxScal for G2LodP:  IOpCl= 0 ISclPx=1 IMOff=     1 NMtTot=     4 NTT=  143380 ScalPx= 1.25D+01
 Calling FoFCou, ICntrl=  3107 FMM=F I1Cent=   0 AccDes= 0.00D+00.
 FoFJK:  IHMeth= 1 ICntrl=    3107 DoSepK=T KAlg= 0 I1Cent=           0 FoldK=F
 IRaf=         1 NMat=       1 IRICut=       1 DoRegI=T DoRafI=F ISym2E= 0 IDoP0=0 IntGTp=1.
 FoFCou: FMM=F IPFlag=           0 FMFlag=      100000 FMFlg1=           0
         NFxFlg=           0 DoJE=F BraDBF=F KetDBF=F FulRan=T
         wScrn=  0.000000 ICntrl=      3507 IOpCl=  0 I1Cent=           0 NGrid=           0
         NMat0=    1 NMatS0=      1 NMatT0=    0 NMatD0=    4 NMtDS0=    3 NMtDT0=    0
 Symmetry not used in FoFCou.
 Defaulting to unpruned grid for atomic number  75.
 Defaulting to unpruned grid for atomic number  75.
 Defaulting to unpruned grid for atomic number  75.
 Defaulting to unpruned grid for atomic number  75.
 Defaulting to unpruned grid for atomic number  75.
 Defaulting to unpruned grid for atomic number  75.
 Defaulting to unpruned grid for atomic number  75.
 Defaulting to unpruned grid for atomic number  75.
 Defaulting to unpruned grid for atomic number  75.
 Defaulting to unpruned grid for atomic number  75.
 Defaulting to unpruned grid for atomic number  75.
 Defaulting to unpruned grid for atomic number  75.
 End of G2Drv F.D. properties file   721 does not exist.
 End of G2Drv F.D. properties file   722 does not exist.
 End of G2Drv F.D. properties file   788 does not exist.
 Leave Link 1110 at Mon Nov 15 16:51:20 2021, MaxMem=  7918845952 cpu:            8296.8 elap:             693.5
 (Enter /gpfs/loomis/apps/avx/software/Gaussian/16-C.01_AVX/g16/l1002.exe)
 Minotr:  Closed shell wavefunction.
          IDoAtm=1111111111111111111111111111
          Direct CPHF calculation.
          Differentiating once with respect to electric field.
                with respect to dipole field.
          Differentiating once with respect to nuclear coordinates.
          Requested convergence is 1.0D-08 RMS, and 1.0D-07 maximum.
          Secondary convergence is 1.0D-12 RMS, and 1.0D-12 maximum.
          NewPWx=T KeepS1=F KeepF1=F KeepIn=T MapXYZ=F SortEE=F KeepMc=T.
 Defaulting to unpruned grid for atomic number  75.
         8681 words used for storage of precomputed grid.
 Two-electron integral symmetry not used.
          MDV=    7918845952 using IRadAn=       1.
          Solving linear equations simultaneously, MaxMat=     384.
 FoF2E skips out because all densities are zero.
 CalDSu exits because no D1Ps are significant.
 FoFJK:  IHMeth= 1 ICntrl=       0 DoSepK=T KAlg= 0 I1Cent=           0 FoldK=F
 IRaf=         1 NMat=      84 IRICut=       1 DoRegI=T DoRafI=F ISym2E= 0 IDoP0=3 IntGTp=3.
 FoFCou: FMM=F IPFlag=           0 FMFlag=      100000 FMFlg1=           0
         NFxFlg=           0 DoJE=F BraDBF=F KetDBF=F FulRan=T
         wScrn=  0.000000 ICntrl=       500 IOpCl=  0 I1Cent=           0 NGrid=           0
         NMat0=   84 NMatS0=     84 NMatT0=    0 NMatD0=   84 NMtDS0=    0 NMtDT0=    0
 Symmetry not used in FoFCou.
 Defaulting to unpruned grid for atomic number  75.
 Defaulting to unpruned grid for atomic number  75.
 Defaulting to unpruned grid for atomic number  75.
 Defaulting to unpruned grid for atomic number  75.
 Defaulting to unpruned grid for atomic number  75.
 Defaulting to unpruned grid for atomic number  75.
 Defaulting to unpruned grid for atomic number  75.
 Defaulting to unpruned grid for atomic number  75.
 Defaulting to unpruned grid for atomic number  75.
 Defaulting to unpruned grid for atomic number  75.
 Defaulting to unpruned grid for atomic number  75.
 Defaulting to unpruned grid for atomic number  75.
          There are    87 degrees of freedom in the 1st order CPHF.  IDoFFX=5 NUNeed=    87.
 Will reuse    3 saved solutions.
     81 vectors produced by pass  0 Test12= 4.09D-14 1.15D-09 XBig12= 4.32D-01 1.35D-01.
 AX will form    81 AO Fock derivatives at one time.
     81 vectors produced by pass  1 Test12= 4.09D-14 1.15D-09 XBig12= 6.91D-02 3.86D-02.
     81 vectors produced by pass  2 Test12= 4.09D-14 1.15D-09 XBig12= 4.00D-03 8.79D-03.
     81 vectors produced by pass  3 Test12= 4.09D-14 1.15D-09 XBig12= 1.14D-04 1.76D-03.
     81 vectors produced by pass  4 Test12= 4.09D-14 1.15D-09 XBig12= 2.72D-06 3.36D-04.
     81 vectors produced by pass  5 Test12= 4.09D-14 1.15D-09 XBig12= 3.78D-08 2.48D-05.
     81 vectors produced by pass  6 Test12= 4.09D-14 1.15D-09 XBig12= 3.69D-10 2.90D-06.
     76 vectors produced by pass  7 Test12= 4.09D-14 1.15D-09 XBig12= 2.83D-12 2.43D-07.
     20 vectors produced by pass  8 Test12= 4.09D-14 1.15D-09 XBig12= 2.32D-14 1.81D-08.
      2 vectors produced by pass  9 Test12= 4.09D-14 1.15D-09 XBig12= 1.70D-16 1.76D-09.
 InvSVY:  IOpt=1 It=  1 EMax= 1.22D-15
 Solved reduced A of dimension   665 with    87 vectors.
 FullF1:  Do perturbations      1 to       3.
 Isotropic polarizability for W=    0.000000      235.58 Bohr**3.
 FullF1:  Do perturbations      1 to       6.
 End of Minotr F.D. properties file   721 does not exist.
 End of Minotr F.D. properties file   722 does not exist.
 End of Minotr F.D. properties file   788 does not exist.
 Leave Link 1002 at Mon Nov 15 17:36:31 2021, MaxMem=  7918845952 cpu:           32377.4 elap:            2710.1
 (Enter /gpfs/loomis/apps/avx/software/Gaussian/16-C.01_AVX/g16/l601.exe)
 Copying SCF densities to generalized density rwf, IOpCl= 0 IROHF=0.

 **********************************************************************

            Population analysis using the SCF Density.

 **********************************************************************

 Alpha  occ. eigenvalues -- -101.62295 -19.32351 -19.32350 -19.31516 -14.52758
 Alpha  occ. eigenvalues --  -14.52757 -10.40014 -10.40013 -10.39769 -10.39740
 Alpha  occ. eigenvalues --  -10.39462 -10.38155 -10.38154 -10.36360 -10.36359
 Alpha  occ. eigenvalues --  -10.35741 -10.35738 -10.35213 -10.35212  -9.49259
 Alpha  occ. eigenvalues --   -7.23631  -7.23222  -7.23213  -3.32026  -1.91497
 Alpha  occ. eigenvalues --   -1.90729  -1.90710  -1.21543  -1.21487  -1.20583
 Alpha  occ. eigenvalues --   -1.12625  -1.10015  -0.96243  -0.95396  -0.94944
 Alpha  occ. eigenvalues --   -0.89377  -0.81622  -0.80498  -0.79516  -0.76151
 Alpha  occ. eigenvalues --   -0.75004  -0.69374  -0.66215  -0.64544  -0.64224
 Alpha  occ. eigenvalues --   -0.64002  -0.63984  -0.61625  -0.60477  -0.57937
 Alpha  occ. eigenvalues --   -0.57297  -0.57167  -0.56568  -0.55356  -0.54387
 Alpha  occ. eigenvalues --   -0.53965  -0.53836  -0.53281  -0.52781  -0.52481
 Alpha  occ. eigenvalues --   -0.52337  -0.51246  -0.50983  -0.50855  -0.49985
 Alpha  occ. eigenvalues --   -0.49353  -0.44662  -0.43313  -0.43217  -0.42094
 Alpha  occ. eigenvalues --   -0.41751  -0.36206  -0.35875  -0.34156  -0.34152
 Alpha  occ. eigenvalues --   -0.31011  -0.28844  -0.28520
 Alpha virt. eigenvalues --   -0.04605  -0.01252  -0.00196   0.01560   0.02347
 Alpha virt. eigenvalues --    0.03523   0.04305   0.04518   0.04810   0.04926
 Alpha virt. eigenvalues --    0.05457   0.06763   0.06820   0.07233   0.07749
 Alpha virt. eigenvalues --    0.08657   0.08834   0.09315   0.09391   0.09587
 Alpha virt. eigenvalues --    0.09928   0.10196   0.10520   0.11100   0.11330
 Alpha virt. eigenvalues --    0.11913   0.11986   0.12085   0.12652   0.12835
 Alpha virt. eigenvalues --    0.12878   0.13410   0.13659   0.14022   0.14245
 Alpha virt. eigenvalues --    0.14391   0.14611   0.14940   0.15207   0.15526
 Alpha virt. eigenvalues --    0.15947   0.16045   0.16288   0.16538   0.16965
 Alpha virt. eigenvalues --    0.16972   0.18180   0.18470   0.18684   0.18911
 Alpha virt. eigenvalues --    0.19281   0.19340   0.19643   0.20102   0.20145
 Alpha virt. eigenvalues --    0.20464   0.21452   0.21735   0.21915   0.22353
 Alpha virt. eigenvalues --    0.22967   0.23370   0.23573   0.24073   0.24149
 Alpha virt. eigenvalues --    0.24755   0.24878   0.25243   0.25976   0.26094
 Alpha virt. eigenvalues --    0.26257   0.27149   0.27545   0.28118   0.28229
 Alpha virt. eigenvalues --    0.28330   0.28858   0.29537   0.29812   0.29962
 Alpha virt. eigenvalues --    0.30104   0.30464   0.30667   0.30805   0.31348
 Alpha virt. eigenvalues --    0.31797   0.32024   0.32235   0.32427   0.32966
 Alpha virt. eigenvalues --    0.33203   0.33433   0.33644   0.35000   0.35137
 Alpha virt. eigenvalues --    0.35205   0.35958   0.36067   0.36206   0.36415
 Alpha virt. eigenvalues --    0.36883   0.37026   0.37209   0.37310   0.37637
 Alpha virt. eigenvalues --    0.37956   0.38530   0.39167   0.39360   0.39393
 Alpha virt. eigenvalues --    0.39800   0.39982   0.40777   0.41039   0.41326
 Alpha virt. eigenvalues --    0.42100   0.42233   0.43037   0.43402   0.44534
 Alpha virt. eigenvalues --    0.45279   0.45567   0.45896   0.46258   0.46971
 Alpha virt. eigenvalues --    0.47064   0.47910   0.48519   0.49029   0.49420
 Alpha virt. eigenvalues --    0.49779   0.50006   0.50751   0.50950   0.50952
 Alpha virt. eigenvalues --    0.51748   0.51760   0.52788   0.53458   0.53926
 Alpha virt. eigenvalues --    0.54035   0.54699   0.54857   0.55397   0.56035
 Alpha virt. eigenvalues --    0.56858   0.57101   0.57555   0.57756   0.58060
 Alpha virt. eigenvalues --    0.58398   0.58494   0.59626   0.59731   0.60362
 Alpha virt. eigenvalues --    0.60794   0.61032   0.62027   0.62129   0.62373
 Alpha virt. eigenvalues --    0.62455   0.63548   0.63942   0.64307   0.64961
 Alpha virt. eigenvalues --    0.65656   0.65779   0.66475   0.66630   0.66952
 Alpha virt. eigenvalues --    0.67777   0.68249   0.68656   0.68668   0.69029
 Alpha virt. eigenvalues --    0.69381   0.69498   0.70531   0.70596   0.70959
 Alpha virt. eigenvalues --    0.71563   0.72154   0.72419   0.72617   0.73967
 Alpha virt. eigenvalues --    0.74761   0.75505   0.75671   0.75924   0.76596
 Alpha virt. eigenvalues --    0.76978   0.77535   0.77759   0.78612   0.78778
 Alpha virt. eigenvalues --    0.79258   0.79415   0.80408   0.80523   0.81339
 Alpha virt. eigenvalues --    0.81491   0.82069   0.82343   0.83234   0.83335
 Alpha virt. eigenvalues --    0.84157   0.84429   0.85152   0.85336   0.85516
 Alpha virt. eigenvalues --    0.85861   0.86815   0.86824   0.87197   0.87921
 Alpha virt. eigenvalues --    0.89230   0.89776   0.90500   0.91603   0.91915
 Alpha virt. eigenvalues --    0.92455   0.93810   0.94278   0.94549   0.95478
 Alpha virt. eigenvalues --    0.95766   0.95978   0.97912   0.98753   0.99043
 Alpha virt. eigenvalues --    1.00025   1.00583   1.00841   1.03126   1.04720
 Alpha virt. eigenvalues --    1.06072   1.06081   1.06825   1.07524   1.08555
 Alpha virt. eigenvalues --    1.08925   1.09474   1.10059   1.11208   1.11687
 Alpha virt. eigenvalues --    1.12099   1.12226   1.12351   1.14304   1.14603
 Alpha virt. eigenvalues --    1.14934   1.15767   1.16820   1.17007   1.18000
 Alpha virt. eigenvalues --    1.19307   1.19949   1.20022   1.20329   1.21091
 Alpha virt. eigenvalues --    1.22229   1.23478   1.24301   1.25606   1.26218
 Alpha virt. eigenvalues --    1.26638   1.27339   1.28109   1.28597   1.30917
 Alpha virt. eigenvalues --    1.31298   1.32592   1.33141   1.34059   1.34099
 Alpha virt. eigenvalues --    1.34584   1.35139   1.36252   1.37325   1.37538
 Alpha virt. eigenvalues --    1.38204   1.40275   1.40328   1.41489   1.41837
 Alpha virt. eigenvalues --    1.42393   1.42452   1.43600   1.44939   1.45229
 Alpha virt. eigenvalues --    1.45241   1.46070   1.47223   1.48057   1.48908
 Alpha virt. eigenvalues --    1.49510   1.50792   1.51221   1.51319   1.51816
 Alpha virt. eigenvalues --    1.53241   1.53935   1.54921   1.55760   1.56009
 Alpha virt. eigenvalues --    1.56813   1.57054   1.58525   1.58737   1.58855
 Alpha virt. eigenvalues --    1.59843   1.61223   1.61529   1.61733   1.62531
 Alpha virt. eigenvalues --    1.63136   1.64631   1.65590   1.65900   1.67056
 Alpha virt. eigenvalues --    1.67536   1.68069   1.69018   1.70313   1.70596
 Alpha virt. eigenvalues --    1.71125   1.71174   1.72036   1.73400   1.73736
 Alpha virt. eigenvalues --    1.74399   1.74468   1.75286   1.76155   1.76602
 Alpha virt. eigenvalues --    1.77801   1.79437   1.80244   1.80857   1.81147
 Alpha virt. eigenvalues --    1.81760   1.81907   1.82567   1.85485   1.86138
 Alpha virt. eigenvalues --    1.88032   1.88138   1.88630   1.88817   1.89839
 Alpha virt. eigenvalues --    1.90110   1.91359   1.92204   1.92522   1.93525
 Alpha virt. eigenvalues --    1.94325   1.94548   1.96753   1.97321   1.97763
 Alpha virt. eigenvalues --    1.98928   1.99473   2.00104   2.02262   2.02570
 Alpha virt. eigenvalues --    2.02791   2.03402   2.07456   2.08457   2.08815
 Alpha virt. eigenvalues --    2.09611   2.11355   2.11755   2.13193   2.13258
 Alpha virt. eigenvalues --    2.13631   2.14697   2.16060   2.16102   2.16639
 Alpha virt. eigenvalues --    2.18843   2.21452   2.23044   2.23152   2.24430
 Alpha virt. eigenvalues --    2.27682   2.29482   2.30509   2.32011   2.34361
 Alpha virt. eigenvalues --    2.38451   2.40139   2.40838   2.41412   2.43672
 Alpha virt. eigenvalues --    2.44325   2.48631   2.51456   2.54681   2.56373
 Alpha virt. eigenvalues --    2.57672   2.58245   2.60423   2.63876   2.65113
 Alpha virt. eigenvalues --    2.65547   2.66337   2.66894   2.70016   2.71971
 Alpha virt. eigenvalues --    2.73347   2.74651   2.76859   2.78924   2.81456
 Alpha virt. eigenvalues --    2.84932   2.87303   2.88263   2.89745   2.94312
 Alpha virt. eigenvalues --    2.94522   2.94900   2.95404   3.03469   3.03865
 Alpha virt. eigenvalues --    3.06513   3.07673   3.07911   3.14178   3.28171
 Alpha virt. eigenvalues --    3.31158   3.32671   3.38577   3.39047   3.40454
 Alpha virt. eigenvalues --    3.41546   3.42430   3.42784   3.43340   3.44661
 Alpha virt. eigenvalues --    3.48059   3.49347   3.50398   3.50828   3.52620
 Alpha virt. eigenvalues --    3.54480   3.54905   3.57510   3.63901   3.85778
 Alpha virt. eigenvalues --    3.88222   3.88261   3.89606   4.28550   4.68645
 Alpha virt. eigenvalues --   45.39764
          Condensed to atoms (all electrons):
               1          2          3          4          5          6
     1  Re  16.014139  -0.499485  -0.499261   0.025309   0.025330  -0.007411
     2  C   -0.499485  20.928583  -3.359834   0.823977  -0.125105  -3.956698
     3  C   -0.499261  -3.359834  20.926432  -0.125746   0.824115  -2.885928
     4  H    0.025309   0.823977  -0.125746   3.418975  -0.451942  -2.146877
     5  H    0.025330  -0.125105   0.824115  -0.451942   3.419307  -0.113508
     6  C   -0.007411  -3.956698  -2.885928  -2.146877  -0.113508  18.810928
     7  C   -0.007468  -2.885782  -3.956740  -0.113444  -2.147568   1.739245
     8  C    0.181055   1.398874  -4.069899   0.500189   0.066730  -4.770227
     9  C    0.181024  -4.070381   1.399060   0.066677   0.500124  -1.480233
    10  N   -0.537344   0.304109   0.027576   0.201114  -0.049426  -0.607443
    11  C    0.057338  -0.885561   1.168824  -0.381202  -0.007729   1.783561
    12  C    0.057293   1.169649  -0.885587  -0.007708  -0.381280   1.049306
    13  H    0.001543   0.014225  -0.107104  -0.001848  -0.006193  -0.023769
    14  H    0.001552  -0.107010   0.014208  -0.006199  -0.001838   0.005751
    15  N   -0.537481   0.027820   0.303763  -0.049412   0.201165  -0.018695
    16  C    0.338552   0.210547  -3.542785   0.234674  -0.000192  -2.237543
    17  C    0.338941  -3.544349   0.210914  -0.000196   0.234662  -1.181705
    18  H   -0.012550   0.114800  -0.237916  -0.017855   0.010081  -0.109260
    19  H   -0.012629  -0.238402   0.114858   0.010090  -0.017866   0.045729
    20  C   -0.923605   0.078281   0.078435  -0.003339  -0.003344  -0.030381
    21  Cl   0.361086  -0.041352  -0.041422  -0.000687  -0.000687   0.002797
    22  O   -0.015697  -0.001170  -0.001185   0.000047   0.000046  -0.002296
    23  C   -0.566468   0.186861  -0.056035  -0.005646   0.003643  -0.041814
    24  C   -0.565839  -0.056148   0.186716   0.003642  -0.005644  -0.013319
    25  O    0.041804  -0.017013  -0.002988   0.000037  -0.000023  -0.000153
    26  H   -0.013148   0.413918  -0.179673   0.023008  -0.206368   0.063503
    27  O    0.041679  -0.002976  -0.016959  -0.000023   0.000037   0.002022
    28  H   -0.013140  -0.179680   0.414018  -0.206286   0.023000   0.625189
               7          8          9         10         11         12
     1  Re  -0.007468   0.181055   0.181024  -0.537344   0.057338   0.057293
     2  C   -2.885782   1.398874  -4.070381   0.304109  -0.885561   1.169649
     3  C   -3.956740  -4.069899   1.399060   0.027576   1.168824  -0.885587
     4  H   -0.113444   0.500189   0.066677   0.201114  -0.381202  -0.007708
     5  H   -2.147568   0.066730   0.500124  -0.049426  -0.007729  -0.381280
     6  C    1.739245  -4.770227  -1.480233  -0.607443   1.783561   1.049306
     7  C   18.809378  -1.479960  -4.769210  -0.018341   1.048824   1.783355
     8  C   -1.479960  16.411550  -0.072815   0.658565  -4.294704  -0.132543
     9  C   -4.769210  -0.072815  16.411055  -0.257370  -0.132531  -4.295709
    10  N   -0.018341   0.658565  -0.257370   8.345962  -0.775841   0.121448
    11  C    1.048824  -4.294704  -0.132531  -0.775841  13.822773   0.099465
    12  C    1.783355  -0.132543  -4.295709   0.121448   0.099465  13.826872
    13  H    0.005748   0.510119  -0.004869   0.024223  -1.233971   0.003956
    14  H   -0.023679  -0.004867   0.510095   0.002947   0.003955  -1.234376
    15  N   -0.607597  -0.257515   0.659003  -0.214538   0.121556  -0.776502
    16  C   -1.181178   2.623288   0.082225   0.338140  -5.712042  -0.134057
    17  C   -2.237354   0.082238   2.623474  -0.575158  -0.134056  -5.714478
    18  H    0.045714   0.130562   0.008420  -0.199255   0.169127  -0.006278
    19  H   -0.109272   0.008407   0.130700  -0.035818  -0.006265   0.168880
    20  C   -0.030357  -0.035303  -0.035249   0.246635  -0.005429  -0.005530
    21  Cl   0.002853  -0.002422  -0.002413  -0.119781  -0.007341  -0.007344
    22  O   -0.002289   0.003132   0.003132  -0.009649  -0.012041  -0.012053
    23  C   -0.013237  -0.012429   0.018945   0.092364  -0.002054  -0.208339
    24  C   -0.041834   0.018965  -0.012389   0.124630  -0.208115  -0.002060
    25  O    0.002020   0.000691  -0.000497  -0.008439  -0.000753   0.011757
    26  H    0.625252   0.013755  -1.519883   0.001156  -0.008092   0.683663
    27  O   -0.000147  -0.000512   0.000690  -0.022537   0.011773  -0.000755
    28  H    0.063537  -1.519835   0.013765  -0.077991   0.683500  -0.008095
              13         14         15         16         17         18
     1  Re   0.001543   0.001552  -0.537481   0.338552   0.338941  -0.012550
     2  C    0.014225  -0.107010   0.027820   0.210547  -3.544349   0.114800
     3  C   -0.107104   0.014208   0.303763  -3.542785   0.210914  -0.237916
     4  H   -0.001848  -0.006199  -0.049412   0.234674  -0.000196  -0.017855
     5  H   -0.006193  -0.001838   0.201165  -0.000192   0.234662   0.010081
     6  C   -0.023769   0.005751  -0.018695  -2.237543  -1.181705  -0.109260
     7  C    0.005748  -0.023679  -0.607597  -1.181178  -2.237354   0.045714
     8  C    0.510119  -0.004867  -0.257515   2.623288   0.082238   0.130562
     9  C   -0.004869   0.510095   0.659003   0.082225   2.623474   0.008420
    10  N    0.024223   0.002947  -0.214538   0.338140  -0.575158  -0.199255
    11  C   -1.233971   0.003955   0.121556  -5.712042  -0.134056   0.169127
    12  C    0.003956  -1.234376  -0.776502  -0.134057  -5.714478  -0.006278
    13  H    2.235985   0.000108   0.002940   0.527876  -0.002253  -0.247622
    14  H    0.000108   2.236158   0.024269  -0.002248   0.528045   0.000092
    15  N    0.002940   0.024269   8.346218  -0.575331   0.338611  -0.035792
    16  C    0.527876  -0.002248  -0.575331  15.997758   0.044303  -0.835002
    17  C   -0.002253   0.528045   0.338611   0.044303  16.000207  -0.037802
    18  H   -0.247622   0.000092  -0.035792  -0.835002  -0.037802   3.193164
    19  H    0.000092  -0.247759  -0.199285  -0.037830  -0.835086  -0.001370
    20  C    0.000057   0.000058   0.246785  -0.139026  -0.138987  -0.015125
    21  Cl  -0.000653  -0.000651  -0.119746   0.094975   0.094977   0.013523
    22  O   -0.000392  -0.000392  -0.009654   0.011510   0.011509   0.001253
    23  C   -0.000278   0.012879   0.124917   0.005869  -0.060817  -0.000683
    24  C    0.012854  -0.000279   0.092307  -0.060577   0.006018  -0.113961
    25  O   -0.000057  -0.000358  -0.022591   0.003716   0.018233   0.001041
    26  H   -0.000086  -0.118494  -0.078037   0.004532  -0.294017  -0.000173
    27  O   -0.000354  -0.000057  -0.008431   0.018200   0.003702   0.023829
    28  H   -0.118496  -0.000086   0.001151  -0.294002   0.004533  -0.003857
              19         20         21         22         23         24
     1  Re  -0.012629  -0.923605   0.361086  -0.015697  -0.566468  -0.565839
     2  C   -0.238402   0.078281  -0.041352  -0.001170   0.186861  -0.056148
     3  C    0.114858   0.078435  -0.041422  -0.001185  -0.056035   0.186716
     4  H    0.010090  -0.003339  -0.000687   0.000047  -0.005646   0.003642
     5  H   -0.017866  -0.003344  -0.000687   0.000046   0.003643  -0.005644
     6  C    0.045729  -0.030381   0.002797  -0.002296  -0.041814  -0.013319
     7  C   -0.109272  -0.030357   0.002853  -0.002289  -0.013237  -0.041834
     8  C    0.008407  -0.035303  -0.002422   0.003132  -0.012429   0.018965
     9  C    0.130700  -0.035249  -0.002413   0.003132   0.018945  -0.012389
    10  N   -0.035818   0.246635  -0.119781  -0.009649   0.092364   0.124630
    11  C   -0.006265  -0.005429  -0.007341  -0.012041  -0.002054  -0.208115
    12  C    0.168880  -0.005530  -0.007344  -0.012053  -0.208339  -0.002060
    13  H    0.000092   0.000057  -0.000653  -0.000392  -0.000278   0.012854
    14  H   -0.247759   0.000058  -0.000651  -0.000392   0.012879  -0.000279
    15  N   -0.199285   0.246785  -0.119746  -0.009654   0.124917   0.092307
    16  C   -0.037830  -0.139026   0.094975   0.011510   0.005869  -0.060577
    17  C   -0.835086  -0.138987   0.094977   0.011509  -0.060817   0.006018
    18  H   -0.001370  -0.015125   0.013523   0.001253  -0.000683  -0.113961
    19  H    3.194339  -0.015121   0.013515   0.001251  -0.114125  -0.000683
    20  C   -0.015121   6.541525   0.004441   0.246358   0.032767   0.032740
    21  Cl   0.013515   0.004441  17.295323  -0.002457  -0.047302  -0.047244
    22  O    0.001251   0.246358  -0.002457   8.160329   0.020838   0.020836
    23  C   -0.114125   0.032767  -0.047302   0.020838   6.388915   0.041885
    24  C   -0.000683   0.032740  -0.047244   0.020836   0.041885   6.388073
    25  O    0.023937   0.008469   0.002002  -0.004854   0.170403  -0.000552
    26  H   -0.003853   0.000829   0.000355   0.000063   0.000018   0.000396
    27  O    0.001043   0.008469   0.001993  -0.004857  -0.000504   0.170442
    28  H   -0.000174   0.000827   0.000355   0.000063   0.000395   0.000017
              25         26         27         28
     1  Re   0.041804  -0.013148   0.041679  -0.013140
     2  C   -0.017013   0.413918  -0.002976  -0.179680
     3  C   -0.002988  -0.179673  -0.016959   0.414018
     4  H    0.000037   0.023008  -0.000023  -0.206286
     5  H   -0.000023  -0.206368   0.000037   0.023000
     6  C   -0.000153   0.063503   0.002022   0.625189
     7  C    0.002020   0.625252  -0.000147   0.063537
     8  C    0.000691   0.013755  -0.000512  -1.519835
     9  C   -0.000497  -1.519883   0.000690   0.013765
    10  N   -0.008439   0.001156  -0.022537  -0.077991
    11  C   -0.000753  -0.008092   0.011773   0.683500
    12  C    0.011757   0.683663  -0.000755  -0.008095
    13  H   -0.000057  -0.000086  -0.000354  -0.118496
    14  H   -0.000358  -0.118494  -0.000057  -0.000086
    15  N   -0.022591  -0.078037  -0.008431   0.001151
    16  C    0.003716   0.004532   0.018200  -0.294002
    17  C    0.018233  -0.294017   0.003702   0.004533
    18  H    0.001041  -0.000173   0.023829  -0.003857
    19  H    0.023937  -0.003853   0.001043  -0.000174
    20  C    0.008469   0.000829   0.008469   0.000827
    21  Cl   0.002002   0.000355   0.001993   0.000355
    22  O   -0.004854   0.000063  -0.004857   0.000063
    23  C    0.170403   0.000018  -0.000504   0.000395
    24  C   -0.000552   0.000396   0.170442   0.000017
    25  O    8.123590  -0.000010   0.000137   0.000017
    26  H   -0.000010   2.245321   0.000017  -0.000352
    27  O    0.000137   0.000017   8.123618  -0.000011
    28  H    0.000017  -0.000352  -0.000011   2.245215
 Mulliken charges:
               1
     1  Re   1.544880
     2  C    0.299300
     3  C    0.300142
     4  H   -0.789329
     5  H   -0.789529
     6  C    1.499229
     7  C    1.499531
     8  C    0.044911
     9  C    0.045161
    10  N    0.020065
    11  C    0.837028
    12  C    0.837050
    13  H   -0.591781
    14  H   -0.591825
    15  N    0.020099
    16  C    0.215646
    17  C    0.215890
    18  H   -0.837107
    19  H   -0.837303
    20  C   -0.145879
    21  Cl  -0.446691
    22  O   -0.401381
    23  C    0.029034
    24  C    0.029122
    25  O   -0.349564
    26  H   -0.653596
    27  O   -0.349527
    28  H   -0.653576
 Sum of Mulliken charges =  -0.00000
 Mulliken charges with hydrogens summed into heavy atoms:
               1
     1  Re   1.544880
     2  C    0.299300
     3  C    0.300142
     6  C    0.709900
     7  C    0.710001
     8  C   -0.608665
     9  C   -0.608435
    10  N    0.020065
    11  C    0.245247
    12  C    0.245225
    15  N    0.020099
    16  C   -0.621461
    17  C   -0.621413
    20  C   -0.145879
    21  Cl  -0.446691
    22  O   -0.401381
    23  C    0.029034
    24  C    0.029122
    25  O   -0.349564
    27  O   -0.349527
 APT charges:
               1
     1  Re  -0.991390
     2  C    0.214495
     3  C    0.214514
     4  H    0.061446
     5  H    0.061436
     6  C   -0.200310
     7  C   -0.200289
     8  C    0.130210
     9  C    0.130162
    10  N   -0.091480
    11  C   -0.071304
    12  C   -0.071266
    13  H    0.063197
    14  H    0.063192
    15  N   -0.091351
    16  C    0.038649
    17  C    0.038631
    18  H    0.072920
    19  H    0.072933
    20  C    1.247909
    21  Cl  -0.551450
    22  O   -0.949550
    23  C    1.256555
    24  C    1.256718
    25  O   -0.907714
    26  H    0.055466
    27  O   -0.907792
    28  H    0.055462
 Sum of APT charges =  -0.00000
 APT charges with hydrogens summed into heavy atoms:
               1
     1  Re  -0.991390
     2  C    0.214495
     3  C    0.214514
     6  C   -0.138863
     7  C   -0.138853
     8  C    0.185672
     9  C    0.185629
    10  N   -0.091480
    11  C   -0.008107
    12  C   -0.008074
    15  N   -0.091351
    16  C    0.111569
    17  C    0.111564
    20  C    1.247909
    21  Cl  -0.551450
    22  O   -0.949550
    23  C    1.256555
    24  C    1.256718
    25  O   -0.907714
    27  O   -0.907792
 Electronic spatial extent (au):  <R**2>=           7123.3005
 Charge=             -0.0000 electrons
 Dipole moment (field-independent basis, Debye):
    X=             -0.0003    Y=             -2.9314    Z=            -10.4339  Tot=             10.8378
 Quadrupole moment (field-independent basis, Debye-Ang):
   XX=           -108.6987   YY=           -162.4468   ZZ=           -164.0924
   XY=              0.0001   XZ=             -0.0014   YZ=             -7.1458
 Traceless Quadrupole moment (field-independent basis, Debye-Ang):
   XX=             36.3806   YY=            -17.3675   ZZ=            -19.0131
   XY=              0.0001   XZ=             -0.0014   YZ=             -7.1458
 Octapole moment (field-independent basis, Debye-Ang**2):
  XXX=             -0.0454  YYY=            -39.3774  ZZZ=           -904.8163  XYY=             -0.0048
  XXY=            -13.0322  XXZ=           -268.4222  XZZ=             -0.0046  YZZ=            -23.8741
  YYZ=           -299.2593  XYZ=              0.0009
 Hexadecapole moment (field-independent basis, Debye-Ang**3):
 XXXX=          -2356.9553 YYYY=          -1254.6382 ZZZZ=          -6731.2734 XXXY=              0.0182
 XXXZ=             -0.1904 YYYX=              0.0300 YYYZ=            -22.3714 ZZZX=             -0.0346
 ZZZY=            -82.0843 XXYY=           -697.5716 XXZZ=          -1573.3123 YYZZ=          -1340.3941
 XXYZ=            -34.5230 YYXZ=             -0.0309 ZZXY=              0.0256
 N-N= 1.779232602991D+03 E-N=-6.759302099268D+03  KE= 1.314541702360D+03
  Exact polarizability:     276.054      -0.001     172.605      -0.003      -1.682     258.080
 Approx polarizability:     329.390      -0.001     228.806      -0.004      -1.528     303.308
 No NMR shielding tensors so no spin-rotation constants.
[...]
 0.00145534,0.01050732,0.00000175,-0.01268763,0.01656871,0.03177228,-0.
 00000079,-0.00000061,-0.00006546,0.00000511,0.00019557,-0.00006561,-0.
 00000510,-0.00019545,-0.00000367,0.00000926,-0.00000396,-0.00000366,-0
 .00000927,0.00000396,0.00014010,0.00001170,0.00010327,0.00014006,-0.00
 001171,-0.00010322,-0.00012861,0.00002307,0.00005879,-0.00012859,-0.00
 002304,-0.00005878,0.00014205,-0.00105285,0.00078285,0.00006680,0.0000
 7003,-0.00013367,0.00006679,-0.00007010,0.00013368,0.00001829,-0.00002
 087,0.00000936,0.00001830,0.00002089,-0.00000936,0.00014237,0.00105302
 ,-0.00078351,-0.00007884,-0.00008032,0.00017065,-0.00007899,0.00008044
 ,-0.00017070,0.00002732,-0.00008115,-0.00003047,0.00002736,0.00008114,
 0.00003047,-0.05821317,-0.00004188,0.00000512,-0.00364811,0.00000008,0
 .00000015,0.02914947,-0.00000745,-0.06947665,-0.01334589,0.00018677,-0
 .00077791,0.00019369,-0.00018720,-0.00077821,0.00019352,0.00002586,-0.
 00015035,0.00014941,-0.00002596,-0.00015037,0.00014944,0.00071812,0.00
 000440,0.00057154,-0.00071814,0.00000439,0.00057159,-0.00027319,0.0000
 4830,0.00090243,0.00027310,0.00004817,0.00090289,-0.00191864,0.0027602
 0,-0.00151907,0.00003233,-0.00007178,-0.00041766,-0.00003185,-0.000071
 73,-0.00041777,0.00014035,-0.00014706,0.00007410,-0.00014038,-0.000147
 09,0.00007403,0.00192054,0.00276043,-0.00152095,0.00091141,-0.00036535
 ,0.00090018,-0.00091233,-0.00036542,0.00089960,-0.00034446,-0.00044147
 ,-0.00038389,0.00034459,-0.00044159,-0.00038412,-0.00003978,-0.9766514
 3,0.11625028,0.00000104,-0.00541714,0.00311285,0.00004038,1.04560304,0
 .00000082,0.00460026,0.03200654,-0.00044110,-0.00007499,-0.00012135,0.
 00044106,-0.00007489,-0.00012127,-0.00000170,0.00001381,-0.00000329,0.
 00000170,0.00001383,-0.00000328,-0.00025694,0.00009039,-0.00002906,0.0
 0025689,0.00009036,-0.00002901,0.00016518,0.00001538,-0.00020622,-0.00
 016511,0.00001542,-0.00020623,0.00089835,-0.00161657,0.00103949,0.0000
 6794,0.00008308,0.00025495,-0.00006797,0.00008309,0.00025492,-0.000016
 88,0.00000309,-0.00000617,0.00001687,0.00000308,-0.00000617,-0.0008987
 1,-0.00161688,0.00104023,-0.00039343,-0.00000476,-0.00023397,0.0003935
 4,-0.00000484,-0.00023388,0.00001906,0.00001559,0.00000148,-0.00001908
 ,0.00001561,0.00000145,0.00000445,0.11687149,-0.07203178,-0.00000009,0
 .00041101,-0.00380330,-0.00000489,-0.12502639,0.04384695,-0.09347170,0
 .02437285,-0.01414945,0.00178542,-0.00030938,-0.00156275,-0.00431404,-
 0.00052955,-0.00102596,-0.00013676,0.00002845,-0.00012014,-0.00003588,
 -0.00001563,0.00006652,0.00135141,0.00049238,-0.00078811,-0.00211125,0
 .00004712,0.00071617,0.00001254,-0.00002065,0.00112108,0.00151995,0.00
 001278,0.00134423,-0.00286658,-0.00281833,-0.02692156,-0.00099778,0.00
 038109,0.00021693,-0.00094934,0.00021139,-0.00273040,0.00001685,-0.000
 04339,-0.00006956,-0.00022901,0.00000730,0.00035746,0.00290107,0.00008
 747,-0.00284756,0.00355546,0.00001258,0.00029316,0.00031091,-0.0000740
 0,0.00622494,-0.00070433,-0.00012370,0.00043306,-0.00109041,0.00057926
 ,0.00322050,0.00153197,-0.03640886,0.00194168,-0.00261415,-0.00483833,
 -0.00169888,0.00028025,0.02120067,-0.00137750,0.67003942,0.02080790,-0
 .08549964,0.01499414,-0.00020647,0.00084065,-0.00004339,-0.00109495,-0
 .00037941,0.00018021,-0.00005982,-0.00007354,-0.00008999,-0.00001265,0
 .00000886,0.00003724,0.00035855,-0.00129049,-0.00037746,-0.00003927,-0
 .00008088,0.00013285,-0.00000429,0.00023567,0.00023228,0.00003387,-0.0
 0004140,0.00011754,-0.00445767,0.01716932,-0.00578759,-0.00046057,-0.0
 0149963,-0.00000984,0.00000701,0.00007874,-0.00005866,-0.00006698,0.00
 009152,-0.00009218,-0.00006839,0.00000588,0.00004155,0.00005177,0.0011
 5177,-0.00034162,0.00096033,-0.00075502,-0.00085873,0.00011517,-0.0002
 0846,0.00036861,-0.00022804,0.00062307,0.00013485,0.00016792,0.0007162
 3,0.00001905,-0.02232571,-0.00855315,-0.01921554,0.00166925,-0.0036975
 5,0.00325377,0.00447100,0.00364929,0.00346226,0.05146523,0.13632031,-0
 .01538271,0.01785067,-0.14076689,0.00075637,-0.00015369,-0.00149326,0.
 00101119,-0.00028291,0.00082002,0.00007035,-0.00002727,0.00018734,0.00
 001924,-0.00000545,0.00001971,0.00039348,0.00027648,0.00025671,-0.0014
 1843,0.00001495,0.00050300,-0.00005702,-0.00002716,0.00101818,0.000939
 13,0.00000731,0.00074632,-0.02132890,-0.00263039,-0.00921466,-0.001828
 76,0.00029093,0.00028727,-0.00095524,0.00007083,-0.00148447,-0.0001007
 6,0.00001145,-0.00020529,-0.00028190,-0.00001170,0.00033299,-0.0035278
 5,-0.00004508,-0.00370008,-0.00038465,0.00001573,-0.00324898,0.0014500
 8,-0.00012666,0.00257161,-0.00149119,-0.00005056,-0.00033729,0.0006379
 5,0.00021578,0.00037163,-0.00008378,-0.03637616,0.00656389,-0.00431406
 ,-0.00342941,-0.00208938,0.00072873,0.02124942,-0.00217366,0.52156067,
 0.05224527,0.65640809,-0.09342519,-0.02436379,0.01408724,-0.00431819,0
 .00052919,0.00102573,0.00178550,0.00030988,0.00156183,-0.00003570,0.00
 001556,-0.00006658,-0.00013706,-0.00002853,0.00012047,-0.00210876,-0.0
 0004721,-0.00071594,0.00135267,-0.00049245,0.00078843,0.00151826,-0.00
 001289,-0.00134252,0.00001179,0.00002077,-0.00112129,0.00289983,-0.000
 08608,0.00284511,-0.00094806,-0.00021104,0.00272578,-0.00099734,-0.000
 38112,-0.00021556,-0.00022865,-0.00000727,-0.00035697,0.00001682,0.000
 04343,0.00006963,-0.00286236,0.00281902,0.02692896,0.00031109,0.000073
 43,-0.00621508,0.00355769,-0.00001323,-0.00029420,-0.00108757,-0.00057
 743,-0.00321006,-0.00070267,0.00012401,-0.00043283,0.00153595,0.036383
 11,-0.00194080,-0.00261073,0.00483558,0.00170008,0.00027750,-0.0211846
 9,0.00137613,-0.04003414,-0.00157770,-0.00849158,0.66921274,-0.0208076
 7,-0.08550121,0.01499772,0.00109523,-0.00037941,0.00018013,0.00020604,
 0.00084078,-0.00004340,0.00001264,0.00000890,0.00003725,0.00005985,-0.
 00007367,-0.00008999,0.00003945,-0.00008098,0.00013293,-0.00035881,-0.
 00129089,-0.00037757,-0.00003403,-0.00004151,0.00011755,0.00000431,0.0
 0023569,0.00023270,-0.00005157,0.00115093,-0.00034149,-0.00000672,0.00
 007885,-0.00005887,0.00046080,-0.00149991,-0.00000994,0.00006830,0.000
 00591,0.00004157,0.00006699,0.00009164,-0.00009218,0.00446211,0.017173
 72,-0.00579327,-0.00011475,-0.00020878,0.00036955,-0.00096100,-0.00075
 547,-0.00085888,-0.00016726,0.00071482,0.00001992,0.00022824,0.0006232
 0,0.00013507,0.02231409,-0.00855575,-0.01921938,-0.00166826,-0.0036978
 6,0.00325356,-0.00446891,0.00365400,0.00346310,0.00158945,0.00464528,0
 .00644086,-0.05152854,0.13634456,0.01532811,0.01786610,-0.14079148,-0.
 00100940,-0.00028284,0.00082013,-0.00075795,-0.00015422,-0.00149383,-0
 .00001943,-0.00000542,0.00001974,-0.00007031,-0.00002729,0.00018735,0.
 00141905,0.00001503,0.00050357,-0.00039530,0.00027666,0.00025698,-0.00
 093954,0.00000732,0.00074645,0.00005783,-0.00002722,0.00101995,0.00352
 588,-0.00004528,-0.00369482,0.00095506,0.00007098,-0.00148411,0.001829
 78,0.00029120,0.00028628,0.00028183,-0.00001166,0.00033295,0.00010072,
 0.00001144,-0.00020534,0.02133451,-0.00263410,-0.00922360,-0.00144682,
 -0.00012561,0.00257724,0.00038180,0.00001635,-0.00324850,-0.00063523,0
 .00021584,0.00037289,0.00149130,-0.00005101,-0.00033635,0.00008473,-0.
 03639592,0.00656383,0.00431516,-0.00343242,-0.00209357,-0.00072766,0.0
 2125962,-0.00217374,0.00854861,0.00643855,0.03883678,-0.52154373,0.052
 38440,0.65716076,-0.03085416,-0.02192642,-0.04596007,-0.00075480,0.000
 11313,0.00104672,-0.00047144,0.00010418,0.00086472,-0.00005867,-0.0000
 0168,-0.00016556,-0.00000340,0.00000386,-0.00001704,-0.00014868,-0.000
 15097,-0.00024616,0.00145757,-0.00001019,-0.00044756,-0.00012479,-0.00
 001278,-0.00042856,-0.00099449,-0.00001311,-0.00080121,-0.00178264,0.0
 0139723,0.00391070,0.00011439,-0.00012415,-0.00035588,0.00080513,-0.00
 008754,0.00183969,-0.00010585,0.00001911,-0.00008932,0.00018217,-0.000
 00108,-0.00028077,0.00024984,-0.00001434,0.00151521,-0.00026404,0.0000
 0095,-0.00088011,-0.00078065,0.00014872,-0.00351093,0.00039323,0.00002
 551,-0.00001980,0.00031124,-0.00033242,-0.00131606,-0.00019091,0.02163
 663,-0.00165035,0.00251135,0.00316680,0.00130015,0.00006814,-0.0127261
 8,0.00140914,-0.55191774,-0.05186681,-0.48045716,0.01828376,-0.0023616
 5,-0.01262297,0.57325519,-0.01284649,0.02862245,-0.00974598,-0.0000102
 6,-0.00027117,0.00007135,0.00015331,0.00009242,0.00003792,0.00000916,0
 .00002734,0.00000892,0.00000140,-0.00000441,-0.00000991,-0.00008826,0.
 00040717,0.00005837,0.00009195,0.00001439,-0.00005114,-0.00000436,-0.0
 0008271,-0.00006937,-0.00006636,0.00001504,-0.00006236,0.00098399,-0.0
 0549974,0.00103464,0.00011677,0.00045649,-0.00002207,0.00006869,-0.000
 04041,0.00012994,0.00000977,-0.00002275,0.00001639,0.00002330,-0.00000
 268,-0.00002618,0.00018384,-0.00008351,0.00016273,-0.00014669,0.000176
 19,0.00018453,-0.00014327,0.00012926,-0.00024526,0.00006956,-0.0001865
 4,-0.00003631,0.00004572,-0.00033408,-0.00005365,0.00440945,0.00434429
 ,0.00341282,-0.00022903,0.00111033,-0.00066636,-0.00068370,-0.00147497
 ,-0.00039966,-0.05411515,-0.06270105,-0.05333813,0.00111195,-0.0009776
 5,-0.00215597,0.06201885,0.03616077,-0.05792654,-0.01911577,-0.0055657
 1,-0.00070196,0.00011320,0.00082343,-0.00171175,0.00006719,0.00018005,
 -0.00010769,0.00001759,-0.00023176,-0.00002732,-0.00000057,-0.00001226
 ,0.00002289,-0.00008013,-0.00054929,0.00114032,-0.00001870,-0.00034303
 ,-0.00002700,-0.00001462,-0.00042189,-0.00073638,-0.00000422,-0.000561
 27,0.00485781,0.00118816,-0.00134360,0.00036754,-0.00009789,-0.0002734
 0,0.00070048,-0.00009502,0.00138619,-0.00006613,0.00000258,-0.00003919
 ,0.00017171,0.00001109,-0.00022304,0.00175210,0.00006608,0.00123502,0.
 00089040,-0.00001550,0.00036897,-0.00122711,0.00008747,-0.00226608,0.0
 0053993,0.00001644,0.00021012,0.00051043,-0.00020476,-0.00079511,0.000
 11198,0.02059388,-0.00242811,0.00258508,0.00278630,0.00135978,0.000028
 22,-0.01229022,0.00147693,-0.48272472,-0.05176225,-0.52791420,0.010017
 07,-0.00303650,-0.01638616,0.52944729,0.06065267,0.54369837,0.00012487
 ,-0.00001323,-0.00014970,-0.00545267,0.00001917,-0.00151705,0.00034179
 ,-0.00006608,0.00138445,-0.00000394,-0.00000313,0.00000867,0.00097364,
 0.00002150,-0.00015071,-0.00002235,0.00000451,0.00004191,-0.01092721,-
 0.00138984,0.02673251,0.00002597,0.00000038,-0.00009884,-0.14933632,-0
 .00708182,0.13314335,-0.00062125,-0.00000231,0.00006717,-0.00002573,0.
 00000141,0.00002283,0.01165991,0.00068384,-0.01272146,-0.00000015,-0.0
 0000055,-0.00000106,0.00057181,0.00000892,0.00039278,-0.00068599,0.000
 06732,-0.00071467,0.00000495,-0.00001083,0.00010931,-0.00031525,0.0001
 1099,-0.00354578,-0.00004713,-0.00000050,0.00000177,0.00048025,0.00003
 375,-0.00059511,-0.00001756,0.00001418,0.00000427,0.00000449,0.0000195
 6,0.00002071,0.00000444,-0.00001629,-0.00000004,-0.00007363,0.00001145
 ,-0.00005253,-0.00004088,0.00000641,0.00000726,0.00006289,-0.00000035,
 0.00005081,0.15334572,-0.00003566,-0.00057673,0.00009298,0.00011695,0.
 00836376,0.00024419,-0.00001445,-0.00018866,0.00000357,0.00000032,0.00
 004407,0.00000705,-0.00000804,-0.00438639,-0.00028089,-0.00000121,0.00
 002873,-0.00000115,0.00011948,0.00556759,0.00007190,-0.00000207,0.0000
 3274,0.00000128,-0.00712962,-0.04354894,0.01145790,0.00000509,-0.00020
 489,-0.00005850,0.00000153,-0.00001741,-0.00000145,-0.00091642,0.00587
 194,0.00110125,0.00000144,-0.00000716,-0.00000076,0.00004297,-0.003961
 80,-0.00024279,0.00003125,-0.00260764,-0.00019349,0.00000761,0.0000456
 7,0.00000188,0.00023849,0.00820227,0.00051828,0.00000135,0.00001244,0.
 00000665,-0.00005549,-0.00060173,0.00002495,-0.00003969,0.00009374,0.0
 0003670,0.00001934,-0.00006703,-0.00001782,0.00001618,-0.00006292,-0.0
 0001613,-0.00001681,0.00001810,0.00000553,0.00005686,0.00020325,-0.000
 03265,0.00000105,-0.00001054,-0.00000475,0.00758389,0.02781955,0.00004
 266,0.00003271,0.00005297,-0.00139543,0.00034404,0.00178291,-0.0001349
 7,-0.00000078,0.00015997,-0.00006421,0.00001029,-0.00003960,0.00011869
 ,-0.00026698,0.00063027,0.00007878,-0.00001554,0.00007648,-0.00433643,
 -0.00001701,0.00582051,-0.00002929,0.00000932,-0.00000778,0.13357617,0
 .01136363,-0.25861098,-0.00008772,-0.00001316,0.00007975,-0.00000266,-
 0.00000301,-0.00005071,0.01848346,0.00116413,-0.01569479,-0.00000006,0
 .00000040,-0.00000068,-0.00012418,-0.00025815,0.00098995,-0.00085849,-
 0.00016016,-0.00000198,0.00004658,0.00000164,0.00005211,-0.00375492,0.
 00059950,-0.00400972,-0.00000472,0.00000105,-0.00000716,0.00096322,0.0
 0002204,-0.00071768,-0.00001107,-0.00010836,0.00001552,-0.00000316,-0.
 00004678,0.00000358,0.00000103,0.00007490,-0.00000908,-0.00006678,0.00
 000172,0.00000381,-0.00008287,0.00001363,0.00008930,0.00003942,0.00000
 114,0.00001308,-0.14245510,-0.01274036,0.26943776,-0.03078983,0.021918
 42,0.04597677,-0.00046879,-0.00010390,-0.00086435,-0.00075442,-0.00011
 332,-0.00104587,-0.00000354,-0.00000383,0.00001707,-0.00005849,0.00000
 172,0.00016525,0.00145549,0.00001022,0.00044730,-0.00014962,0.00015094
 ,0.00024589,-0.00099296,0.00001312,0.00079989,-0.00012428,0.00001270,0
 .00042860,0.00025053,0.00001381,-0.00151295,0.00080384,0.00008735,-0.0
 0183575,0.00011430,0.00012415,0.00035497,0.00018189,0.00000108,0.00028
 034,-0.00010579,-0.00001914,0.00008919,-0.00178299,-0.00139694,-0.0039
 1517,-0.00077896,-0.00014792,0.00350634,-0.00026552,-0.00000081,0.0008
 8020,0.00031029,0.00033176,0.00131263,0.00039251,-0.00002563,0.0000198
 4,-0.00019108,-0.02161740,0.00164824,0.00250852,-0.00316419,-0.0013007
 9,0.00006874,0.01271503,-0.00140773,0.01828237,0.00235627,0.01259651,-
 0.55115277,0.05192669,0.48045414,-0.00925433,-0.00096632,-0.00793286,0
 .00001171,-0.00002412,0.00007171,0.57243039,0.01285193,0.02861828,-0.0
 0975695,-0.00015306,0.00009246,0.00003804,0.00001036,-0.00027114,0.000
 07151,-0.00000139,-0.00000442,-0.00000991,-0.00000914,0.00002738,0.000
 00888,-0.00009218,0.00001441,-0.00005125,0.00008834,0.00040728,0.00005
 831,0.00006653,0.00001508,-0.00006243,0.00000435,-0.00008273,-0.000069
 53,-0.00018404,-0.00008324,0.00016294,-0.00006887,-0.00004044,0.000130
 15,-0.00011681,0.00045659,-0.00002206,-0.00002331,-0.00000269,-0.00002
 621,-0.00000975,-0.00002279,0.00001637,-0.00098492,-0.00550102,0.00103
 551,0.00014315,0.00012900,-0.00024595,0.00014675,0.00017633,0.00018439
 ,-0.00004557,-0.00033357,-0.00005373,-0.00006965,-0.00018656,-0.000036
 35,-0.00440800,0.00434718,0.00341351,0.00022845,0.00111083,-0.00066599
 ,0.00068357,-0.00147783,-0.00039963,-0.00111738,-0.00097767,-0.0021580
 4,0.05417234,-0.06272655,-0.05347735,0.00096918,0.00019686,0.00111959,
 -0.00000255,-0.00006082,-0.00000779,-0.06207864,0.03619031,0.05794246,
 -0.01913645,-0.00561608,0.00171256,0.00006703,0.00018046,0.00070200,0.
 00011326,0.00082422,0.00002743,-0.00000058,-0.00001228,0.00010776,0.00
 001760,-0.00023188,-0.00114094,-0.00001868,-0.00034359,-0.00002228,-0.
 00008014,-0.00054990,0.00073690,-0.00000429,-0.00056140,0.00002673,-0.
 00001461,-0.00042259,-0.00175234,0.00006637,0.00123519,-0.00070111,-0.
 00009492,0.00138608,-0.00036774,-0.00009796,-0.00027315,-0.00017174,0.
 00001106,-0.00022309,0.00006624,0.00000261,-0.00003923,-0.00485814,0.0
 0118941,-0.00134392,0.00122592,0.00008718,-0.00226861,-0.00088994,-0.0
 0001566,0.00036822,-0.00051004,-0.00020438,-0.00079358,-0.00054007,0.0
 0001658,0.00020993,-0.00011317,0.02060754,-0.00242811,-0.00258614,0.00
 278840,0.00136235,-0.00002855,-0.01229843,0.00147759,-0.01004453,-0.00
 303623,-0.01638848,0.48271702,-0.05190020,-0.52864663,0.00794818,0.001
 11868,0.00867138,0.00000458,0.00001868,-0.00006928,-0.52944021,0.06080
 285,0.54448332,0.00012480,0.00001326,0.00014958,0.00034196,0.00006606,
 -0.00138440,-0.00545239,-0.00001935,0.00151677,0.00097393,-0.00002145,
 0.00015121,-0.00000396,0.00000311,-0.00000866,-0.01092236,0.00138813,-
 0.02673371,-0.00002229,-0.00000442,-0.00004187,-0.14931949,0.00707270,
 -0.13313881,0.00002591,-0.00000042,0.00009882,-0.00068618,-0.00006726,
 0.00071462,0.01166009,-0.00068330,0.01272533,-0.00002573,-0.00000140,-
 0.00002282,0.00057182,-0.00000899,-0.00039268,-0.00000015,0.00000055,0
 .00000106,-0.00062138,0.00000234,-0.00006734,-0.00031609,-0.00011058,0
 .00354626,0.00000496,0.00001082,-0.00010929,0.00048029,-0.00003367,0.0
 0059530,-0.00004712,0.00000051,-0.00000177,-0.00001755,-0.00001426,-0.
 00000426,0.00000450,-0.00001957,-0.00002070,0.00000444,0.00001635,0.00
 000003,-0.00004088,-0.00000639,-0.00000720,-0.00007352,-0.00001143,0.0
 0005257,0.00001170,0.00000255,-0.00000461,-0.00004237,-0.00000020,-0.0
 0000968,0.00006280,0.00000034,-0.00005086,0.15332427,0.00003570,-0.000
 57662,0.00009301,0.00001445,-0.00018886,0.00000347,-0.00011721,0.00836
 441,0.00024385,0.00000827,-0.00438669,-0.00028087,-0.00000032,0.000044
 02,0.00000703,-0.00011868,0.00556697,0.00007191,0.00000118,0.00002873,
 -0.00000110,0.00711975,-0.04354797,0.01144549,0.00000206,0.00003278,0.
 00000128,-0.00003164,-0.00260769,-0.00019283,0.00091517,0.00587316,0.0
 0109890,-0.00000153,-0.00001741,-0.00000145,-0.00004308,-0.00396165,-0
 .00024233,-0.00000144,-0.00000717,-0.00000076,-0.00000511,-0.00020492,
 -0.00005849,-0.00023740,0.00820210,0.00051744,-0.00000760,0.00004570,0
 .00000190,0.00005542,-0.00060172,0.00002494,-0.00000135,0.00001245,0.0
 0000665,0.00003967,0.00009379,0.00003668,-0.00001936,-0.00006704,-0.00
 001783,-0.00001618,-0.00006294,-0.00001612,-0.00005685,0.00020319,-0.0
 0003261,0.00001685,0.00001811,0.00000547,0.00002413,-0.00006080,0.0000
 1867,0.00000020,-0.00000120,-0.00000204,-0.00000109,-0.00001054,-0.000
 00472,-0.00757402,0.02781781,-0.00004254,0.00003273,0.00005290,0.00013
 490,-0.00000077,0.00015975,0.00139477,0.00034360,0.00178342,-0.0001190
 0,-0.00026667,0.00062996,0.00006417,0.00001030,-0.00003959,0.00433464,
 -0.00001693,0.00581903,-0.00007870,-0.00001556,0.00007649,-0.13356824,
 0.01135045,-0.25862912,0.00002926,0.00000933,-0.00000779,0.00085861,-0
 .00015999,-0.00000154,-0.01848102,0.00116298,-0.01569903,0.00000267,-0
 .00000300,-0.00005071,0.00012412,-0.00025775,0.00099001,0.00000006,0.0
 0000040,-0.00000068,0.00008761,-0.00001315,0.00007976,0.00375523,0.000
 59847,-0.00400996,-0.00004658,0.00000163,0.00005209,-0.00096311,0.0000
 2201,-0.00071782,0.00000470,0.00000104,-0.00000716,0.00001105,-0.00010
 833,0.00001551,0.00000315,-0.00004676,0.00000358,-0.00000103,0.0000748
 8,-0.00000908,0.00008288,0.00001360,0.00008927,0.00006652,0.00000172,0
 .00000392,-0.00007173,-0.00000777,-0.00006922,0.00000968,-0.00000205,0
 .00001144,-0.00003921,0.00000114,0.00001303,0.14244712,-0.01272554,0.2
 6946153\\-0.00001061,0.00000574,-0.00004607,0.00005885,-0.00000310,0.0
 0001848,-0.00000815,-0.00000320,0.00001014,0.00002601,-0.00000632,-0.0
 0000077,-0.00001076,-0.00000921,-0.00000188,-0.00000138,0.00000511,0.0
 0000231,-0.00001866,0.00000928,-0.00001330,0.00001706,-0.00000726,-0.0
 0001689,0.00001644,-0.00000696,0.00000085,0.00003962,0.00001270,0.0000
 3215,-0.00001186,-0.00000222,0.00001443,-0.00000652,0.00000138,0.00000
 092,-0.00000245,0.00000045,-0.00000258,-0.00000094,-0.00000015,-0.0000
 0628,-0.00007387,0.00001067,0.00001181,-0.00000330,-0.00000935,-0.0000
 0097,-0.00003116,-0.00001253,0.00001753,0.00000482,0.00000639,0.000002
 22,-0.00000177,0.00000551,-0.00000188,0.00002013,0.00003549,0.00006085
 ,0.00000033,0.00001066,-0.00002029,-0.00000765,-0.00001089,-0.00001011
 ,-0.00000501,-0.00002610,-0.00003891,0.00002301,-0.00002526,-0.0000510
 1,0.00000786,0.00000193,0.00001102,-0.00000425,0.00000634,-0.00000214,
 -0.00001337,0.00000450,0.00002720,-0.00000240,0.00000636,0.00000316\\\
 @
 The archive entry for this job was punched.


 WE HAVE LEFT UNDONE THOSE THINGS WHICH WE OUGHT TO HAVE DONE,
 AND WE HAVE DONE THOSE THINGS WHICH WE OUGHT NOT TO HAVE DONE.
                   BOOK OF COMMON PRAYER                      
 Job cpu time:       0 days 20 hours 31 minutes 28.9 seconds.
 Elapsed time:       0 days  1 hours 43 minutes 14.8 seconds.
 File lengths (MBytes):  RWF=   1116 Int=      0 D2E=      0 Chk=     24 Scr=      8
 Normal termination of Gaussian 16 at Mon Nov 15 17:54:21 2021.
